# LAMMPS data file written by WriteLammpsdata function in RASPA(written by Zhao Li)
2361 atoms
0 bonds
0 angles
0 dihedrals
0 impropers
0 40.044 xlo xhi
0 39.798 ylo yhi
0 26.766 zlo zhi
2.43692e-15 1.63894e-15 1.63894e-15 xy xz yz

18 atom types
0 bond types
0 angle types
0 dihedral types
0 improper types

Masses

1 0 # C
2 0 # H
3 0 # N
4 0 # P
5 0 # Ni
6 0 # Ht
7 0 # OT
8 0 # Op
9 0 # Ow
10 0 # Hw
11 0 # Lw
12 0 # Zr
13 0 # Cl
14 0 # O
15 0 # Si
16 0 # CH4
17 0 # C_co2
18 0 # O_co2

Pair Coeffs

1 0.104809 3.43 # C
2 0.0439235 2.57 # H
3 0.0688809 3.26 # N
4 0.304449 3.69 # P
5 0.0149784 2.52 # Ni
6 0 0 # Ht
7 0.184502 3.02 # OT
8 0.154744 3.154 # Op
9 0.154744 3.154 # Ow
10 0 0 # Hw
11 0 0 # Lw
12 0.0688851 2.78317 # Zr
13 0.0998719 4.3 # Cl
14 0.105147 3.3 # O
15 0.0436457 2.3 # Si
16 0.314448 3.72 # CH4
17 0.059384 2.745 # C_co2
18 0.169962 3.017 # O_co2

Atoms

1 1 15 2.05 8.45689 1.12429 8.88658 # Si
2 1 15 2.05 6.14996 0.5516 10.8496 # Si
3 1 15 2.05 5.58834 1.21921 0.41755 # Si
4 1 15 2.05 2.44569 1.25324 0.357326 # Si
5 1 15 2.05 1.42717 0.541651 10.9003 # Si
6 1 15 2.05 3.7323 1.17325 8.99097 # Si
7 1 15 2.05 8.4623 16.4664 9.00435 # Si
8 1 15 2.05 6.16237 17.3089 10.9007 # Si
9 1 15 2.05 5.51686 16.4607 0.416077 # Si
10 1 15 2.05 2.41425 16.4545 0.39868 # Si
11 1 15 2.05 1.41035 17.3048 10.9473 # Si
12 1 15 2.05 3.74532 16.4511 9.10941 # Si
13 1 14 -1.025 7.4602 1.06261 10.1149 # O
14 1 14 -1.025 6.17478 1.16807 12.3271 # O
15 1 14 -1.025 4.01842 1.17802 0.386769 # O
16 1 14 -1.025 1.94013 1.21583 12.2374 # O
17 1 14 -1.025 2.30053 1.07654 9.68528 # O
18 1 14 -1.025 4.87536 1.10041 10.0908 # O
19 1 14 -1.025 7.49223 16.7928 10.2086 # O
20 1 14 -1.025 6.17679 16.8107 12.4087 # O
21 1 14 -1.025 3.96436 16.8067 0.38543 # O
22 1 14 -1.025 1.822 16.6873 12.3431 # O
23 1 14 -1.025 2.34057 16.7589 9.77762 # O
24 1 14 -1.025 4.90139 16.7271 10.1416 # O
25 1 14 -1.025 6.1007 18.8842 10.8857 # O
26 1 14 -1.025 1.53769 18.8662 11.0155 # O
27 1 14 -1.025 8.33115 2.53911 8.16898 # O
28 1 14 -1.025 8.18099 19.8652 7.84779 # O
29 1 14 -1.025 8.04884 17.2843 7.70995 # O
30 1 14 -1.025 3.77615 2.58289 8.24928 # O
31 1 14 -1.025 3.88427 0.0139293 7.92006 # O
32 1 14 -1.025 3.90629 17.33 7.77552 # O
33 1 14 -1.025 19.9479 0.99893 10.5993 # O
34 1 14 -1.025 19.9419 16.8584 10.602 # O
35 1 14 -1.025 8.39322 14.9243 8.64542 # O
36 1 14 -1.025 3.77214 14.9243 8.64809 # O
37 1 14 -1.025 5.77234 14.9243 0.774876 # O
38 1 14 -1.025 2.17239 14.9243 0.817701 # O
39 1 15 2.05 1.55411 18.7747 2.19508 # Si
40 1 15 2.05 3.86104 19.3474 4.1581 # Si
41 1 15 2.05 4.42266 18.6798 7.10905 # Si
42 1 15 2.05 7.56531 18.6458 7.04883 # Si
43 1 15 2.05 8.58383 19.3573 4.20882 # Si
44 1 15 2.05 6.2787 18.7258 2.29947 # Si
45 1 15 2.05 1.5487 3.43258 2.31285 # Si
46 1 15 2.05 3.84863 2.59005 4.20922 # Si
47 1 15 2.05 4.49414 3.43835 7.10758 # Si
48 1 15 2.05 7.59675 3.44452 7.09018 # Si
49 1 15 2.05 8.60065 2.59423 4.25579 # Si
50 1 15 2.05 6.26568 3.4479 2.41791 # Si
51 1 14 -1.025 2.5508 18.8364 3.42337 # O
52 1 14 -1.025 3.83622 18.7309 5.63558 # O
53 1 14 -1.025 5.99258 18.721 7.07827 # O
54 1 14 -1.025 8.07087 18.6832 5.54592 # O
55 1 14 -1.025 7.71047 18.8225 2.99378 # O
56 1 14 -1.025 5.13564 18.7986 3.39928 # O
57 1 14 -1.025 2.51877 3.10623 3.51705 # O
58 1 14 -1.025 3.83421 3.08832 5.71722 # O
59 1 14 -1.025 6.04664 3.0923 7.07693 # O
60 1 14 -1.025 8.189 3.2117 5.65164 # O
61 1 14 -1.025 7.67043 3.14006 3.08612 # O
62 1 14 -1.025 5.10961 3.1719 3.45014 # O
63 1 14 -1.025 3.9103 1.01485 4.19423 # O
64 1 14 -1.025 8.47331 1.03276 4.32405 # O
65 1 14 -1.025 1.67985 17.3599 1.47748 # O
66 1 14 -1.025 1.83001 0.0338283 1.15629 # O
67 1 14 -1.025 1.96216 2.61473 1.01845 # O
68 1 14 -1.025 6.23485 17.3161 1.55778 # O
69 1 14 -1.025 6.12673 19.8851 1.22856 # O
70 1 14 -1.025 6.10471 2.56896 1.08402 # O
71 1 14 -1.025 10.0851 18.9001 3.90784 # O
72 1 14 -1.025 10.0911 3.04057 3.91051 # O
73 1 14 -1.025 1.61778 4.97475 1.95392 # O
74 1 14 -1.025 6.23886 4.97475 1.95659 # O
75 1 14 -1.025 4.23866 4.97475 7.46638 # O
76 1 14 -1.025 7.83861 4.97475 7.5092 # O
77 1 15 2.05 18.4679 8.82521 11.1879 # Si
78 1 15 2.05 16.161 9.3979 9.2249 # Si
79 1 15 2.05 15.5993 8.73029 6.27395 # Si
80 1 15 2.05 12.4567 8.69626 6.33417 # Si
81 1 15 2.05 11.4382 9.40785 9.17418 # Si
82 1 15 2.05 13.7433 8.77625 11.0835 # Si
83 1 15 2.05 18.4733 13.3821 11.0701 # Si
84 1 15 2.05 16.1734 12.5396 9.17378 # Si
85 1 15 2.05 15.5279 13.3878 6.27542 # Si
86 1 15 2.05 12.4253 13.394 6.29282 # Si
87 1 15 2.05 11.4213 12.5437 9.12721 # Si
88 1 15 2.05 13.7563 13.3974 10.9651 # Si
89 1 14 -1.025 17.4712 8.88689 9.95963 # O
90 1 14 -1.025 16.1858 8.78143 7.74742 # O
91 1 14 -1.025 14.0294 8.77148 6.30473 # O
92 1 14 -1.025 11.9511 8.73367 7.83708 # O
93 1 14 -1.025 12.3115 8.87296 10.3892 # O
94 1 14 -1.025 14.8864 8.84909 9.98372 # O
95 1 14 -1.025 17.5032 13.0557 9.86595 # O
96 1 14 -1.025 16.1878 13.0378 7.66578 # O
97 1 14 -1.025 13.9754 13.0418 6.30607 # O
98 1 14 -1.025 11.833 13.1612 7.73136 # O
99 1 14 -1.025 12.3516 13.0896 10.2969 # O
100 1 14 -1.025 14.9124 13.1214 9.93286 # O
101 1 14 -1.025 16.1117 10.9643 9.18877 # O
102 1 14 -1.025 11.5487 10.9823 9.05895 # O
103 1 14 -1.025 18.3422 7.41039 11.9055 # O
104 1 14 -1.025 18.192 9.98333 12.2267 # O
105 1 14 -1.025 18.0598 12.5642 12.3646 # O
106 1 14 -1.025 13.7871 7.36661 11.8252 # O
107 1 14 -1.025 13.8953 9.93557 12.1544 # O
108 1 14 -1.025 13.9173 12.5185 12.299 # O
109 1 14 -1.025 9.93692 8.95057 9.47516 # O
110 1 14 -1.025 9.93091 12.9901 9.47249 # O
111 1 14 -1.025 18.4042 14.9243 11.4291 # O
112 1 14 -1.025 13.7831 14.9243 11.4264 # O
113 1 14 -1.025 15.7833 14.9243 5.91662 # O
114 1 14 -1.025 12.1834 14.9243 5.8738 # O
115 1 15 2.05 11.5651 11.0738 4.49642 # Si
116 1 15 2.05 13.872 10.5011 2.5334 # Si
117 1 15 2.05 14.4337 11.1687 12.9655 # Si
118 1 15 2.05 17.5763 11.2027 13.0257 # Si
119 1 15 2.05 18.5948 10.4912 2.48268 # Si
120 1 15 2.05 16.2897 11.1227 4.39203 # Si
121 1 15 2.05 11.5597 6.51692 4.37865 # Si
122 1 15 2.05 13.8596 7.35945 2.48228 # Si
123 1 15 2.05 14.5051 6.51115 12.9669 # Si
124 1 15 2.05 17.6077 6.50498 12.9843 # Si
125 1 15 2.05 18.6117 7.35527 2.43571 # Si
126 1 15 2.05 16.2767 6.5016 4.27359 # Si
127 1 14 -1.025 12.5618 11.0121 3.26813 # O
128 1 14 -1.025 13.8472 11.1176 1.05592 # O
129 1 14 -1.025 16.0036 11.1275 12.9962 # O
130 1 14 -1.025 18.0819 11.1653 1.14558 # O
131 1 14 -1.025 17.7215 11.026 3.69772 # O
132 1 14 -1.025 15.1466 11.0499 3.29222 # O
133 1 14 -1.025 12.5298 6.84327 3.17445 # O
134 1 14 -1.025 13.8452 6.86118 0.974282 # O
135 1 14 -1.025 16.0576 6.8572 12.9976 # O
136 1 14 -1.025 18.2 6.7378 1.03986 # O
137 1 14 -1.025 17.6814 6.80944 3.60538 # O
138 1 14 -1.025 15.1206 6.7776 3.24136 # O
139 1 14 -1.025 13.9213 8.93465 2.49727 # O
140 1 14 -1.025 18.4843 8.91674 2.36745 # O
141 1 14 -1.025 11.6908 12.4886 5.21402 # O
142 1 14 -1.025 11.841 9.91567 5.53521 # O
143 1 14 -1.025 11.9732 7.33477 5.67305 # O
144 1 14 -1.025 16.2459 12.5324 5.13372 # O
145 1 14 -1.025 16.1377 9.96343 5.46294 # O
146 1 14 -1.025 16.1157 7.38054 5.60748 # O
147 1 14 -1.025 0.0740814 10.9484 2.78366 # O
148 1 14 -1.025 0.080088 6.90893 2.78099 # O
149 1 14 -1.025 11.6288 4.97475 4.73758 # O
150 1 14 -1.025 16.2499 4.97475 4.73491 # O
151 1 14 -1.025 14.2497 4.97475 12.6081 # O
152 1 14 -1.025 17.8496 4.97475 12.5653 # O
153 1 15 2.05 11.5651 18.7747 4.49642 # Si
154 1 15 2.05 13.872 19.3474 2.5334 # Si
155 1 15 2.05 14.4337 18.6798 12.9655 # Si
156 1 15 2.05 17.5763 18.6458 13.0257 # Si
157 1 15 2.05 18.5948 19.3573 2.48268 # Si
158 1 15 2.05 16.2897 18.7258 4.39203 # Si
159 1 15 2.05 11.5597 3.43258 4.37865 # Si
160 1 15 2.05 13.8596 2.59005 2.48228 # Si
161 1 15 2.05 14.5051 3.43835 12.9669 # Si
162 1 15 2.05 17.6077 3.44452 12.9843 # Si
163 1 15 2.05 18.6117 2.59423 2.43571 # Si
164 1 15 2.05 16.2767 3.4479 4.27359 # Si
165 1 14 -1.025 12.5618 18.8364 3.26813 # O
166 1 14 -1.025 13.8472 18.7309 1.05592 # O
167 1 14 -1.025 16.0036 18.721 12.9962 # O
168 1 14 -1.025 18.0819 18.6832 1.14558 # O
169 1 14 -1.025 17.7215 18.8225 3.69772 # O
170 1 14 -1.025 15.1466 18.7986 3.29222 # O
171 1 14 -1.025 12.5298 3.10623 3.17445 # O
172 1 14 -1.025 13.8452 3.08832 0.974282 # O
173 1 14 -1.025 16.0576 3.0923 12.9976 # O
174 1 14 -1.025 18.2 3.2117 1.03986 # O
175 1 14 -1.025 17.6814 3.14006 3.60538 # O
176 1 14 -1.025 15.1206 3.1719 3.24136 # O
177 1 14 -1.025 13.9213 1.01485 2.49727 # O
178 1 14 -1.025 18.4843 1.03276 2.36745 # O
179 1 14 -1.025 11.6908 17.3599 5.21402 # O
180 1 14 -1.025 11.841 0.0338283 5.53521 # O
181 1 14 -1.025 11.9732 2.61473 5.67305 # O
182 1 14 -1.025 16.2459 17.3161 5.13372 # O
183 1 14 -1.025 16.1377 19.8851 5.46294 # O
184 1 14 -1.025 16.1157 2.56896 5.60748 # O
185 1 14 -1.025 0.0740814 18.9001 2.78366 # O
186 1 14 -1.025 0.080088 3.04057 2.78099 # O
187 1 15 2.05 18.4679 1.12429 11.1879 # Si
188 1 15 2.05 16.161 0.5516 9.2249 # Si
189 1 15 2.05 15.5993 1.21921 6.27395 # Si
190 1 15 2.05 12.4567 1.25324 6.33417 # Si
191 1 15 2.05 11.4382 0.541651 9.17418 # Si
192 1 15 2.05 13.7433 1.17325 11.0835 # Si
193 1 15 2.05 18.4733 16.4664 11.0701 # Si
194 1 15 2.05 16.1734 17.3089 9.17378 # Si
195 1 15 2.05 15.5279 16.4607 6.27542 # Si
196 1 15 2.05 12.4253 16.4545 6.29282 # Si
197 1 15 2.05 11.4213 17.3048 9.12721 # Si
198 1 15 2.05 13.7563 16.4511 10.9651 # Si
199 1 14 -1.025 17.4712 1.06261 9.95963 # O
200 1 14 -1.025 16.1858 1.16807 7.74742 # O
201 1 14 -1.025 14.0294 1.17802 6.30473 # O
202 1 14 -1.025 11.9511 1.21583 7.83708 # O
203 1 14 -1.025 12.3115 1.07654 10.3892 # O
204 1 14 -1.025 14.8864 1.10041 9.98372 # O
205 1 14 -1.025 17.5032 16.7928 9.86595 # O
206 1 14 -1.025 16.1878 16.8107 7.66578 # O
207 1 14 -1.025 13.9754 16.8067 6.30607 # O
208 1 14 -1.025 11.833 16.6873 7.73136 # O
209 1 14 -1.025 12.3516 16.7589 10.2969 # O
210 1 14 -1.025 14.9124 16.7271 9.93286 # O
211 1 14 -1.025 16.1117 18.8842 9.18877 # O
212 1 14 -1.025 11.5487 18.8662 9.05895 # O
213 1 14 -1.025 18.3422 2.53911 11.9055 # O
214 1 14 -1.025 18.192 19.8652 12.2267 # O
215 1 14 -1.025 18.0598 17.2843 12.3646 # O
216 1 14 -1.025 13.7871 2.58289 11.8252 # O
217 1 14 -1.025 13.8953 0.0139293 12.1544 # O
218 1 14 -1.025 13.9173 17.33 12.299 # O
219 1 14 -1.025 9.93692 0.99893 9.47516 # O
220 1 14 -1.025 9.93091 16.8584 9.47249 # O
221 1 15 2.05 1.55411 11.0738 2.19508 # Si
222 1 15 2.05 3.86104 10.5011 4.1581 # Si
223 1 15 2.05 4.42266 11.1687 7.10905 # Si
224 1 15 2.05 7.56531 11.2027 7.04883 # Si
225 1 15 2.05 8.58383 10.4912 4.20882 # Si
226 1 15 2.05 6.2787 11.1227 2.29947 # Si
227 1 15 2.05 1.5487 6.51692 2.31285 # Si
228 1 15 2.05 3.84863 7.35945 4.20922 # Si
229 1 15 2.05 4.49414 6.51115 7.10758 # Si
230 1 15 2.05 7.59675 6.50498 7.09018 # Si
231 1 15 2.05 8.60065 7.35527 4.25579 # Si
232 1 15 2.05 6.26568 6.5016 2.41791 # Si
233 1 14 -1.025 2.5508 11.0121 3.42337 # O
234 1 14 -1.025 3.83622 11.1176 5.63558 # O
235 1 14 -1.025 5.99258 11.1275 7.07827 # O
236 1 14 -1.025 8.07087 11.1653 5.54592 # O
237 1 14 -1.025 7.71047 11.026 2.99378 # O
238 1 14 -1.025 5.13564 11.0499 3.39928 # O
239 1 14 -1.025 2.51877 6.84327 3.51705 # O
240 1 14 -1.025 3.83421 6.86118 5.71722 # O
241 1 14 -1.025 6.04664 6.8572 7.07693 # O
242 1 14 -1.025 8.189 6.7378 5.65164 # O
243 1 14 -1.025 7.67043 6.80944 3.08612 # O
244 1 14 -1.025 5.10961 6.7776 3.45014 # O
245 1 14 -1.025 3.9103 8.93465 4.19423 # O
246 1 14 -1.025 8.47331 8.91674 4.32405 # O
247 1 14 -1.025 1.67985 12.4886 1.47748 # O
248 1 14 -1.025 1.83001 9.91567 1.15629 # O
249 1 14 -1.025 1.96216 7.33477 1.01845 # O
250 1 14 -1.025 6.23485 12.5324 1.55778 # O
251 1 14 -1.025 6.12673 9.96343 1.22856 # O
252 1 14 -1.025 6.10471 7.38054 1.08402 # O
253 1 14 -1.025 10.0851 10.9484 3.90784 # O
254 1 14 -1.025 10.0911 6.90893 3.91051 # O
255 1 15 2.05 8.45689 8.82521 8.88658 # Si
256 1 15 2.05 6.14996 9.3979 10.8496 # Si
257 1 15 2.05 5.58834 8.73029 0.41755 # Si
258 1 15 2.05 2.44569 8.69626 0.357326 # Si
259 1 15 2.05 1.42717 9.40785 10.9003 # Si
260 1 15 2.05 3.7323 8.77625 8.99097 # Si
261 1 15 2.05 8.4623 13.3821 9.00435 # Si
262 1 15 2.05 6.16237 12.5396 10.9007 # Si
263 1 15 2.05 5.51686 13.3878 0.416077 # Si
264 1 15 2.05 2.41425 13.394 0.39868 # Si
265 1 15 2.05 1.41035 12.5437 10.9473 # Si
266 1 15 2.05 3.74532 13.3974 9.10941 # Si
267 1 14 -1.025 7.4602 8.88689 10.1149 # O
268 1 14 -1.025 6.17478 8.78143 12.3271 # O
269 1 14 -1.025 4.01842 8.77148 0.386769 # O
270 1 14 -1.025 1.94013 8.73367 12.2374 # O
271 1 14 -1.025 2.30053 8.87296 9.68528 # O
272 1 14 -1.025 4.87536 8.84909 10.0908 # O
273 1 14 -1.025 7.49223 13.0557 10.2086 # O
274 1 14 -1.025 6.17679 13.0378 12.4087 # O
275 1 14 -1.025 3.96436 13.0418 0.38543 # O
276 1 14 -1.025 1.822 13.1612 12.3431 # O
277 1 14 -1.025 2.34057 13.0896 9.77762 # O
278 1 14 -1.025 4.90139 13.1214 10.1416 # O
279 1 14 -1.025 6.1007 10.9643 10.8857 # O
280 1 14 -1.025 1.53769 10.9823 11.0155 # O
281 1 14 -1.025 8.33115 7.41039 8.16898 # O
282 1 14 -1.025 8.18099 9.98333 7.84779 # O
283 1 14 -1.025 8.04884 12.5642 7.70995 # O
284 1 14 -1.025 3.77615 7.36661 8.24928 # O
285 1 14 -1.025 3.88427 9.93557 7.92006 # O
286 1 14 -1.025 3.90629 12.5185 7.77552 # O
287 1 14 -1.025 19.9479 8.95057 10.5993 # O
288 1 14 -1.025 19.9419 12.9901 10.602 # O
289 1 15 2.05 8.45689 1.12429 22.2696 # Si
290 1 15 2.05 6.14996 0.5516 24.2326 # Si
291 1 15 2.05 5.58834 1.21921 13.8005 # Si
292 1 15 2.05 2.44569 1.25324 13.7403 # Si
293 1 15 2.05 1.42717 0.541651 24.2833 # Si
294 1 15 2.05 3.7323 1.17325 22.374 # Si
295 1 15 2.05 8.4623 16.4664 22.3874 # Si
296 1 15 2.05 6.16237 17.3089 24.2837 # Si
297 1 15 2.05 5.51686 16.4607 13.7991 # Si
298 1 15 2.05 2.41425 16.4545 13.7817 # Si
299 1 15 2.05 1.41035 17.3048 24.3303 # Si
300 1 15 2.05 3.74532 16.4511 22.4924 # Si
301 1 14 -1.025 7.4602 1.06261 23.4979 # O
302 1 14 -1.025 6.17478 1.16807 25.7101 # O
303 1 14 -1.025 4.01842 1.17802 13.7698 # O
304 1 14 -1.025 1.94013 1.21583 25.6204 # O
305 1 14 -1.025 2.30053 1.07654 23.0683 # O
306 1 14 -1.025 4.87536 1.10041 23.4738 # O
307 1 14 -1.025 7.49223 16.7928 23.5916 # O
308 1 14 -1.025 6.17679 16.8107 25.7917 # O
309 1 14 -1.025 3.96436 16.8067 13.7684 # O
310 1 14 -1.025 1.822 16.6873 25.7261 # O
311 1 14 -1.025 2.34057 16.7589 23.1606 # O
312 1 14 -1.025 4.90139 16.7271 23.5246 # O
313 1 14 -1.025 6.1007 18.8842 24.2687 # O
314 1 14 -1.025 1.53769 18.8662 24.3985 # O
315 1 14 -1.025 8.33115 2.53911 21.552 # O
316 1 14 -1.025 8.18099 19.8652 21.2308 # O
317 1 14 -1.025 8.04884 17.2843 21.0929 # O
318 1 14 -1.025 3.77615 2.58289 21.6323 # O
319 1 14 -1.025 3.88427 0.0139293 21.3031 # O
320 1 14 -1.025 3.90629 17.33 21.1585 # O
321 1 14 -1.025 19.9479 0.99893 23.9823 # O
322 1 14 -1.025 19.9419 16.8584 23.985 # O
323 1 14 -1.025 8.39322 14.9243 22.0284 # O
324 1 14 -1.025 3.77214 14.9243 22.0311 # O
325 1 14 -1.025 5.77234 14.9243 14.1579 # O
326 1 14 -1.025 2.17239 14.9243 14.2007 # O
327 1 15 2.05 1.55411 18.7747 15.5781 # Si
328 1 15 2.05 3.86104 19.3474 17.5411 # Si
329 1 15 2.05 4.42266 18.6798 20.492 # Si
330 1 15 2.05 7.56531 18.6458 20.4318 # Si
331 1 15 2.05 8.58383 19.3573 17.5918 # Si
332 1 15 2.05 6.2787 18.7258 15.6825 # Si
333 1 15 2.05 1.5487 3.43258 15.6959 # Si
334 1 15 2.05 3.84863 2.59005 17.5922 # Si
335 1 15 2.05 4.49414 3.43835 20.4906 # Si
336 1 15 2.05 7.59675 3.44452 20.4732 # Si
337 1 15 2.05 8.60065 2.59423 17.6388 # Si
338 1 15 2.05 6.26568 3.4479 15.8009 # Si
339 1 14 -1.025 2.5508 18.8364 16.8064 # O
340 1 14 -1.025 3.83622 18.7309 19.0186 # O
341 1 14 -1.025 5.99258 18.721 20.4613 # O
342 1 14 -1.025 8.07087 18.6832 18.9289 # O
343 1 14 -1.025 7.71047 18.8225 16.3768 # O
344 1 14 -1.025 5.13564 18.7986 16.7823 # O
345 1 14 -1.025 2.51877 3.10623 16.9001 # O
346 1 14 -1.025 3.83421 3.08832 19.1002 # O
347 1 14 -1.025 6.04664 3.0923 20.4599 # O
348 1 14 -1.025 8.189 3.2117 19.0346 # O
349 1 14 -1.025 7.67043 3.14006 16.4691 # O
350 1 14 -1.025 5.10961 3.1719 16.8331 # O
351 1 14 -1.025 3.9103 1.01485 17.5772 # O
352 1 14 -1.025 8.47331 1.03276 17.707 # O
353 1 14 -1.025 1.67985 17.3599 14.8605 # O
354 1 14 -1.025 1.83001 0.0338283 14.5393 # O
355 1 14 -1.025 1.96216 2.61473 14.4014 # O
356 1 14 -1.025 6.23485 17.3161 14.9408 # O
357 1 14 -1.025 6.12673 19.8851 14.6116 # O
358 1 14 -1.025 6.10471 2.56896 14.467 # O
359 1 14 -1.025 10.0851 18.9001 17.2908 # O
360 1 14 -1.025 10.0911 3.04057 17.2935 # O
361 1 14 -1.025 1.61778 4.97475 15.3369 # O
362 1 14 -1.025 6.23886 4.97475 15.3396 # O
363 1 14 -1.025 4.23866 4.97475 20.8494 # O
364 1 14 -1.025 7.83861 4.97475 20.8922 # O
365 1 15 2.05 18.4679 8.82521 24.5709 # Si
366 1 15 2.05 16.161 9.3979 22.6079 # Si
367 1 15 2.05 15.5993 8.73029 19.657 # Si
368 1 15 2.05 12.4567 8.69626 19.7172 # Si
369 1 15 2.05 11.4382 9.40785 22.5572 # Si
370 1 15 2.05 13.7433 8.77625 24.4665 # Si
371 1 15 2.05 18.4733 13.3821 24.4531 # Si
372 1 15 2.05 16.1734 12.5396 22.5568 # Si
373 1 15 2.05 15.5279 13.3878 19.6584 # Si
374 1 15 2.05 12.4253 13.394 19.6758 # Si
375 1 15 2.05 11.4213 12.5437 22.5102 # Si
376 1 15 2.05 13.7563 13.3974 24.3481 # Si
377 1 14 -1.025 17.4712 8.88689 23.3426 # O
378 1 14 -1.025 16.1858 8.78143 21.1304 # O
379 1 14 -1.025 14.0294 8.77148 19.6877 # O
380 1 14 -1.025 11.9511 8.73367 21.2201 # O
381 1 14 -1.025 12.3115 8.87296 23.7722 # O
382 1 14 -1.025 14.8864 8.84909 23.3667 # O
383 1 14 -1.025 17.5032 13.0557 23.2489 # O
384 1 14 -1.025 16.1878 13.0378 21.0488 # O
385 1 14 -1.025 13.9754 13.0418 19.6891 # O
386 1 14 -1.025 11.833 13.1612 21.1144 # O
387 1 14 -1.025 12.3516 13.0896 23.6799 # O
388 1 14 -1.025 14.9124 13.1214 23.3159 # O
389 1 14 -1.025 16.1117 10.9643 22.5718 # O
390 1 14 -1.025 11.5487 10.9823 22.442 # O
391 1 14 -1.025 18.3422 7.41039 25.2885 # O
392 1 14 -1.025 18.192 9.98333 25.6097 # O
393 1 14 -1.025 18.0598 12.5642 25.7476 # O
394 1 14 -1.025 13.7871 7.36661 25.2082 # O
395 1 14 -1.025 13.8953 9.93557 25.5374 # O
396 1 14 -1.025 13.9173 12.5185 25.682 # O
397 1 14 -1.025 9.93692 8.95057 22.8582 # O
398 1 14 -1.025 9.93091 12.9901 22.8555 # O
399 1 14 -1.025 18.4042 14.9243 24.8121 # O
400 1 14 -1.025 13.7831 14.9243 24.8094 # O
401 1 14 -1.025 15.7833 14.9243 19.2996 # O
402 1 14 -1.025 12.1834 14.9243 19.2568 # O
403 1 15 2.05 11.5651 11.0738 17.8794 # Si
404 1 15 2.05 13.872 10.5011 15.9164 # Si
405 1 15 2.05 14.4337 11.1687 26.3485 # Si
406 1 15 2.05 17.5763 11.2027 26.4087 # Si
407 1 15 2.05 18.5948 10.4912 15.8657 # Si
408 1 15 2.05 16.2897 11.1227 17.775 # Si
409 1 15 2.05 11.5597 6.51692 17.7616 # Si
410 1 15 2.05 13.8596 7.35945 15.8653 # Si
411 1 15 2.05 14.5051 6.51115 26.3499 # Si
412 1 15 2.05 17.6077 6.50498 26.3673 # Si
413 1 15 2.05 18.6117 7.35527 15.8187 # Si
414 1 15 2.05 16.2767 6.5016 17.6566 # Si
415 1 14 -1.025 12.5618 11.0121 16.6511 # O
416 1 14 -1.025 13.8472 11.1176 14.4389 # O
417 1 14 -1.025 16.0036 11.1275 26.3792 # O
418 1 14 -1.025 18.0819 11.1653 14.5286 # O
419 1 14 -1.025 17.7215 11.026 17.0807 # O
420 1 14 -1.025 15.1466 11.0499 16.6752 # O
421 1 14 -1.025 12.5298 6.84327 16.5574 # O
422 1 14 -1.025 13.8452 6.86118 14.3573 # O
423 1 14 -1.025 16.0576 6.8572 26.3806 # O
424 1 14 -1.025 18.2 6.7378 14.4229 # O
425 1 14 -1.025 17.6814 6.80944 16.9884 # O
426 1 14 -1.025 15.1206 6.7776 16.6244 # O
427 1 14 -1.025 13.9213 8.93465 15.8803 # O
428 1 14 -1.025 18.4843 8.91674 15.7505 # O
429 1 14 -1.025 11.6908 12.4886 18.597 # O
430 1 14 -1.025 11.841 9.91567 18.9182 # O
431 1 14 -1.025 11.9732 7.33477 19.0561 # O
432 1 14 -1.025 16.2459 12.5324 18.5167 # O
433 1 14 -1.025 16.1377 9.96343 18.8459 # O
434 1 14 -1.025 16.1157 7.38054 18.9905 # O
435 1 14 -1.025 0.0740814 10.9484 16.1667 # O
436 1 14 -1.025 0.080088 6.90893 16.164 # O
437 1 14 -1.025 11.6288 4.97475 18.1206 # O
438 1 14 -1.025 16.2499 4.97475 18.1179 # O
439 1 14 -1.025 14.2497 4.97475 25.9911 # O
440 1 14 -1.025 17.8496 4.97475 25.9483 # O
441 1 15 2.05 11.5651 18.7747 17.8794 # Si
442 1 15 2.05 13.872 19.3474 15.9164 # Si
443 1 15 2.05 14.4337 18.6798 26.3485 # Si
444 1 15 2.05 17.5763 18.6458 26.4087 # Si
445 1 15 2.05 18.5948 19.3573 15.8657 # Si
446 1 15 2.05 16.2897 18.7258 17.775 # Si
447 1 15 2.05 11.5597 3.43258 17.7616 # Si
448 1 15 2.05 13.8596 2.59005 15.8653 # Si
449 1 15 2.05 14.5051 3.43835 26.3499 # Si
450 1 15 2.05 17.6077 3.44452 26.3673 # Si
451 1 15 2.05 18.6117 2.59423 15.8187 # Si
452 1 15 2.05 16.2767 3.4479 17.6566 # Si
453 1 14 -1.025 12.5618 18.8364 16.6511 # O
454 1 14 -1.025 13.8472 18.7309 14.4389 # O
455 1 14 -1.025 16.0036 18.721 26.3792 # O
456 1 14 -1.025 18.0819 18.6832 14.5286 # O
457 1 14 -1.025 17.7215 18.8225 17.0807 # O
458 1 14 -1.025 15.1466 18.7986 16.6752 # O
459 1 14 -1.025 12.5298 3.10623 16.5574 # O
460 1 14 -1.025 13.8452 3.08832 14.3573 # O
461 1 14 -1.025 16.0576 3.0923 26.3806 # O
462 1 14 -1.025 18.2 3.2117 14.4229 # O
463 1 14 -1.025 17.6814 3.14006 16.9884 # O
464 1 14 -1.025 15.1206 3.1719 16.6244 # O
465 1 14 -1.025 13.9213 1.01485 15.8803 # O
466 1 14 -1.025 18.4843 1.03276 15.7505 # O
467 1 14 -1.025 11.6908 17.3599 18.597 # O
468 1 14 -1.025 11.841 0.0338283 18.9182 # O
469 1 14 -1.025 11.9732 2.61473 19.0561 # O
470 1 14 -1.025 16.2459 17.3161 18.5167 # O
471 1 14 -1.025 16.1377 19.8851 18.8459 # O
472 1 14 -1.025 16.1157 2.56896 18.9905 # O
473 1 14 -1.025 0.0740814 18.9001 16.1667 # O
474 1 14 -1.025 0.080088 3.04057 16.164 # O
475 1 15 2.05 18.4679 1.12429 24.5709 # Si
476 1 15 2.05 16.161 0.5516 22.6079 # Si
477 1 15 2.05 15.5993 1.21921 19.657 # Si
478 1 15 2.05 12.4567 1.25324 19.7172 # Si
479 1 15 2.05 11.4382 0.541651 22.5572 # Si
480 1 15 2.05 13.7433 1.17325 24.4665 # Si
481 1 15 2.05 18.4733 16.4664 24.4531 # Si
482 1 15 2.05 16.1734 17.3089 22.5568 # Si
483 1 15 2.05 15.5279 16.4607 19.6584 # Si
484 1 15 2.05 12.4253 16.4545 19.6758 # Si
485 1 15 2.05 11.4213 17.3048 22.5102 # Si
486 1 15 2.05 13.7563 16.4511 24.3481 # Si
487 1 14 -1.025 17.4712 1.06261 23.3426 # O
488 1 14 -1.025 16.1858 1.16807 21.1304 # O
489 1 14 -1.025 14.0294 1.17802 19.6877 # O
490 1 14 -1.025 11.9511 1.21583 21.2201 # O
491 1 14 -1.025 12.3115 1.07654 23.7722 # O
492 1 14 -1.025 14.8864 1.10041 23.3667 # O
493 1 14 -1.025 17.5032 16.7928 23.2489 # O
494 1 14 -1.025 16.1878 16.8107 21.0488 # O
495 1 14 -1.025 13.9754 16.8067 19.6891 # O
496 1 14 -1.025 11.833 16.6873 21.1144 # O
497 1 14 -1.025 12.3516 16.7589 23.6799 # O
498 1 14 -1.025 14.9124 16.7271 23.3159 # O
499 1 14 -1.025 16.1117 18.8842 22.5718 # O
500 1 14 -1.025 11.5487 18.8662 22.442 # O
501 1 14 -1.025 18.3422 2.53911 25.2885 # O
502 1 14 -1.025 18.192 19.8652 25.6097 # O
503 1 14 -1.025 18.0598 17.2843 25.7476 # O
504 1 14 -1.025 13.7871 2.58289 25.2082 # O
505 1 14 -1.025 13.8953 0.0139293 25.5374 # O
506 1 14 -1.025 13.9173 17.33 25.682 # O
507 1 14 -1.025 9.93692 0.99893 22.8582 # O
508 1 14 -1.025 9.93091 16.8584 22.8555 # O
509 1 15 2.05 1.55411 11.0738 15.5781 # Si
510 1 15 2.05 3.86104 10.5011 17.5411 # Si
511 1 15 2.05 4.42266 11.1687 20.492 # Si
512 1 15 2.05 7.56531 11.2027 20.4318 # Si
513 1 15 2.05 8.58383 10.4912 17.5918 # Si
514 1 15 2.05 6.2787 11.1227 15.6825 # Si
515 1 15 2.05 1.5487 6.51692 15.6959 # Si
516 1 15 2.05 3.84863 7.35945 17.5922 # Si
517 1 15 2.05 4.49414 6.51115 20.4906 # Si
518 1 15 2.05 7.59675 6.50498 20.4732 # Si
519 1 15 2.05 8.60065 7.35527 17.6388 # Si
520 1 15 2.05 6.26568 6.5016 15.8009 # Si
521 1 14 -1.025 2.5508 11.0121 16.8064 # O
522 1 14 -1.025 3.83622 11.1176 19.0186 # O
523 1 14 -1.025 5.99258 11.1275 20.4613 # O
524 1 14 -1.025 8.07087 11.1653 18.9289 # O
525 1 14 -1.025 7.71047 11.026 16.3768 # O
526 1 14 -1.025 5.13564 11.0499 16.7823 # O
527 1 14 -1.025 2.51877 6.84327 16.9001 # O
528 1 14 -1.025 3.83421 6.86118 19.1002 # O
529 1 14 -1.025 6.04664 6.8572 20.4599 # O
530 1 14 -1.025 8.189 6.7378 19.0346 # O
531 1 14 -1.025 7.67043 6.80944 16.4691 # O
532 1 14 -1.025 5.10961 6.7776 16.8331 # O
533 1 14 -1.025 3.9103 8.93465 17.5772 # O
534 1 14 -1.025 8.47331 8.91674 17.707 # O
535 1 14 -1.025 1.67985 12.4886 14.8605 # O
536 1 14 -1.025 1.83001 9.91567 14.5393 # O
537 1 14 -1.025 1.96216 7.33477 14.4014 # O
538 1 14 -1.025 6.23485 12.5324 14.9408 # O
539 1 14 -1.025 6.12673 9.96343 14.6116 # O
540 1 14 -1.025 6.10471 7.38054 14.467 # O
541 1 14 -1.025 10.0851 10.9484 17.2908 # O
542 1 14 -1.025 10.0911 6.90893 17.2935 # O
543 1 15 2.05 8.45689 8.82521 22.2696 # Si
544 1 15 2.05 6.14996 9.3979 24.2326 # Si
545 1 15 2.05 5.58834 8.73029 13.8005 # Si
546 1 15 2.05 2.44569 8.69626 13.7403 # Si
547 1 15 2.05 1.42717 9.40785 24.2833 # Si
548 1 15 2.05 3.7323 8.77625 22.374 # Si
549 1 15 2.05 8.4623 13.3821 22.3874 # Si
550 1 15 2.05 6.16237 12.5396 24.2837 # Si
551 1 15 2.05 5.51686 13.3878 13.7991 # Si
552 1 15 2.05 2.41425 13.394 13.7817 # Si
553 1 15 2.05 1.41035 12.5437 24.3303 # Si
554 1 15 2.05 3.74532 13.3974 22.4924 # Si
555 1 14 -1.025 7.4602 8.88689 23.4979 # O
556 1 14 -1.025 6.17478 8.78143 25.7101 # O
557 1 14 -1.025 4.01842 8.77148 13.7698 # O
558 1 14 -1.025 1.94013 8.73367 25.6204 # O
559 1 14 -1.025 2.30053 8.87296 23.0683 # O
560 1 14 -1.025 4.87536 8.84909 23.4738 # O
561 1 14 -1.025 7.49223 13.0557 23.5916 # O
562 1 14 -1.025 6.17679 13.0378 25.7917 # O
563 1 14 -1.025 3.96436 13.0418 13.7684 # O
564 1 14 -1.025 1.822 13.1612 25.7261 # O
565 1 14 -1.025 2.34057 13.0896 23.1606 # O
566 1 14 -1.025 4.90139 13.1214 23.5246 # O
567 1 14 -1.025 6.1007 10.9643 24.2687 # O
568 1 14 -1.025 1.53769 10.9823 24.3985 # O
569 1 14 -1.025 8.33115 7.41039 21.552 # O
570 1 14 -1.025 8.18099 9.98333 21.2308 # O
571 1 14 -1.025 8.04884 12.5642 21.0929 # O
572 1 14 -1.025 3.77615 7.36661 21.6323 # O
573 1 14 -1.025 3.88427 9.93557 21.3031 # O
574 1 14 -1.025 3.90629 12.5185 21.1585 # O
575 1 14 -1.025 19.9479 8.95057 23.9823 # O
576 1 14 -1.025 19.9419 12.9901 23.985 # O
577 1 15 2.05 8.45689 21.0233 8.88658 # Si
578 1 15 2.05 6.14996 20.4506 10.8496 # Si
579 1 15 2.05 5.58834 21.1182 0.41755 # Si
580 1 15 2.05 2.44569 21.1522 0.357326 # Si
581 1 15 2.05 1.42717 20.4407 10.9003 # Si
582 1 15 2.05 3.7323 21.0722 8.99097 # Si
583 1 15 2.05 8.4623 36.3654 9.00435 # Si
584 1 15 2.05 6.16237 37.2079 10.9007 # Si
585 1 15 2.05 5.51686 36.3597 0.416077 # Si
586 1 15 2.05 2.41425 36.3535 0.39868 # Si
587 1 15 2.05 1.41035 37.2038 10.9473 # Si
588 1 15 2.05 3.74532 36.3501 9.10941 # Si
589 1 14 -1.025 7.4602 20.9616 10.1149 # O
590 1 14 -1.025 6.17478 21.0671 12.3271 # O
591 1 14 -1.025 4.01842 21.077 0.386769 # O
592 1 14 -1.025 1.94013 21.1148 12.2374 # O
593 1 14 -1.025 2.30053 20.9755 9.68528 # O
594 1 14 -1.025 4.87536 20.9994 10.0908 # O
595 1 14 -1.025 7.49223 36.6918 10.2086 # O
596 1 14 -1.025 6.17679 36.7097 12.4087 # O
597 1 14 -1.025 3.96436 36.7057 0.38543 # O
598 1 14 -1.025 1.822 36.5863 12.3431 # O
599 1 14 -1.025 2.34057 36.6579 9.77762 # O
600 1 14 -1.025 4.90139 36.6261 10.1416 # O
601 1 14 -1.025 6.1007 38.7832 10.8857 # O
602 1 14 -1.025 1.53769 38.7652 11.0155 # O
603 1 14 -1.025 8.33115 22.4381 8.16898 # O
604 1 14 -1.025 8.18099 39.7642 7.84779 # O
605 1 14 -1.025 8.04884 37.1833 7.70995 # O
606 1 14 -1.025 3.77615 22.4819 8.24928 # O
607 1 14 -1.025 3.88427 19.9129 7.92006 # O
608 1 14 -1.025 3.90629 37.229 7.77552 # O
609 1 14 -1.025 19.9479 20.8979 10.5993 # O
610 1 14 -1.025 19.9419 36.7574 10.602 # O
611 1 14 -1.025 8.39322 34.8233 8.64542 # O
612 1 14 -1.025 3.77214 34.8233 8.64809 # O
613 1 14 -1.025 5.77234 34.8233 0.774876 # O
614 1 14 -1.025 2.17239 34.8233 0.817701 # O
615 1 15 2.05 1.55411 38.6737 2.19508 # Si
616 1 15 2.05 3.86104 39.2464 4.1581 # Si
617 1 15 2.05 4.42266 38.5788 7.10905 # Si
618 1 15 2.05 7.56531 38.5448 7.04883 # Si
619 1 15 2.05 8.58383 39.2563 4.20882 # Si
620 1 15 2.05 6.2787 38.6248 2.29947 # Si
621 1 15 2.05 1.5487 23.3316 2.31285 # Si
622 1 15 2.05 3.84863 22.4891 4.20922 # Si
623 1 15 2.05 4.49414 23.3373 7.10758 # Si
624 1 15 2.05 7.59675 23.3435 7.09018 # Si
625 1 15 2.05 8.60065 22.4932 4.25579 # Si
626 1 15 2.05 6.26568 23.3469 2.41791 # Si
627 1 14 -1.025 2.5508 38.7354 3.42337 # O
628 1 14 -1.025 3.83622 38.6299 5.63558 # O
629 1 14 -1.025 5.99258 38.62 7.07827 # O
630 1 14 -1.025 8.07087 38.5822 5.54592 # O
631 1 14 -1.025 7.71047 38.7215 2.99378 # O
632 1 14 -1.025 5.13564 38.6976 3.39928 # O
633 1 14 -1.025 2.51877 23.0052 3.51705 # O
634 1 14 -1.025 3.83421 22.9873 5.71722 # O
635 1 14 -1.025 6.04664 22.9913 7.07693 # O
636 1 14 -1.025 8.189 23.1107 5.65164 # O
637 1 14 -1.025 7.67043 23.0391 3.08612 # O
638 1 14 -1.025 5.10961 23.0709 3.45014 # O
639 1 14 -1.025 3.9103 20.9138 4.19423 # O
640 1 14 -1.025 8.47331 20.9318 4.32405 # O
641 1 14 -1.025 1.67985 37.2589 1.47748 # O
642 1 14 -1.025 1.83001 19.9328 1.15629 # O
643 1 14 -1.025 1.96216 22.5137 1.01845 # O
644 1 14 -1.025 6.23485 37.2151 1.55778 # O
645 1 14 -1.025 6.12673 39.7841 1.22856 # O
646 1 14 -1.025 6.10471 22.468 1.08402 # O
647 1 14 -1.025 10.0851 38.7991 3.90784 # O
648 1 14 -1.025 10.0911 22.9396 3.91051 # O
649 1 14 -1.025 1.61778 24.8738 1.95392 # O
650 1 14 -1.025 6.23886 24.8738 1.95659 # O
651 1 14 -1.025 4.23866 24.8738 7.46638 # O
652 1 14 -1.025 7.83861 24.8738 7.5092 # O
653 1 15 2.05 18.4679 28.7242 11.1879 # Si
654 1 15 2.05 16.161 29.2969 9.2249 # Si
655 1 15 2.05 15.5993 28.6293 6.27395 # Si
656 1 15 2.05 12.4567 28.5953 6.33417 # Si
657 1 15 2.05 11.4382 29.3068 9.17418 # Si
658 1 15 2.05 13.7433 28.6753 11.0835 # Si
659 1 15 2.05 18.4733 33.2811 11.0701 # Si
660 1 15 2.05 16.1734 32.4386 9.17378 # Si
661 1 15 2.05 15.5279 33.2868 6.27542 # Si
662 1 15 2.05 12.4253 33.293 6.29282 # Si
663 1 15 2.05 11.4213 32.4427 9.12721 # Si
664 1 15 2.05 13.7563 33.2964 10.9651 # Si
665 1 14 -1.025 17.4712 28.7859 9.95963 # O
666 1 14 -1.025 16.1858 28.6804 7.74742 # O
667 1 14 -1.025 14.0294 28.6705 6.30473 # O
668 1 14 -1.025 11.9511 28.6327 7.83708 # O
669 1 14 -1.025 12.3115 28.772 10.3892 # O
670 1 14 -1.025 14.8864 28.7481 9.98372 # O
671 1 14 -1.025 17.5032 32.9547 9.86595 # O
672 1 14 -1.025 16.1878 32.9368 7.66578 # O