# LAMMPS data file written by WriteLammpsdata function in RASPA(written by Zhao Li)
1251 atoms
0 bonds
0 angles
0 dihedrals
0 impropers
0 41.91 xlo xhi
0 36.3899 ylo yhi
0 46.857 zlo zhi
-21.1334 -0.198811 -0.112717 xy xz yz

7 atom types
0 bond types
0 angle types
0 dihedral types
0 improper types

Masses

1 12.011 # C
2 51.996 # Cr
3 14.007 # N
4 15.999 # O
5 1.008 # H
6 131.29 # Xe
7 83.8 # Kr

Pair Coeffs

1 0.104984 3.43 # C
2 0.0150034 2.69 # Cr
3 0.0689958 3.26 # N
4 0.0599937 3.12 # O
5 0.0439967 2.57 # H
6 0.439172 4.1 # Xe
7 0.330671 3.636 # Kr

Atoms

1 1 4 0 1.410373445 10.08761338 6.971625092 # 25.cif O
2 1 4 0 -1.164824263 10.13761017 7.366161391 # 25.cif O
3 1 1 0 -2.227046966 10.77600873 7.618955136 # 25.cif C
4 1 4 0 -2.608123179 11.79504502 6.96436225 # 25.cif O
5 1 4 0 -1.280068774 13.99947324 7.372487092 # 25.cif O
6 1 1 0 -0.1972799134 14.59983083 7.630903682 # 25.cif C
7 1 4 0 0.8788374276 14.4212642 6.980996501 # 25.cif O
8 1 4 0 2.121287427 12.16576525 7.381155645 # 25.cif O
9 1 1 0 2.099479833 10.92608889 7.630669397 # 25.cif C
10 1 4 0 0.9699313613 10.14951761 4.307099361 # 25.cif O
11 1 4 0 -1.605854129 10.08470539 4.70116709 # 25.cif O
12 1 1 0 -2.299828992 10.92125084 4.044699922 # 25.cif C
13 1 4 0 -2.327421193 12.15952791 4.301242231 # 25.cif O
14 1 4 0 -1.097504309 14.41999488 4.710069928 # 25.cif O
15 1 1 0 -0.02234535662 14.6071445 4.061099887 # 25.cif C
16 1 4 0 1.063694395 14.01191752 4.317173625 # 25.cif O
17 1 4 0 2.404145877 11.81282236 4.717567055 # 25.cif O
18 1 1 0 2.030142132 10.79330426 4.059694176 # 25.cif C
19 1 2 0 -0.09793407677 10.18950586 5.836747519 # 25.cif Cr
20 1 2 0 -1.763661102 13.05630116 5.837216089 # 25.cif Cr
21 1 2 0 1.552373353 13.06537046 5.84893035 # 25.cif Cr
22 1 4 0 -0.102935431 12.10396843 5.840964653 # 25.cif O
23 1 4 0 8.156667792 5.966102878 16.04408569 # 25.cif O
24 1 4 0 9.399015896 3.710423112 16.44377627 # 25.cif O
25 1 1 0 10.47471513 3.531857043 15.7936348 # 25.cif C
26 1 4 0 11.55781921 4.132032684 16.05205139 # 25.cif O
27 1 4 0 12.88629748 6.336098689 16.45947337 # 25.cif O
28 1 1 0 12.50552993 7.355679143 15.80558334 # 25.cif C
29 1 4 0 11.44382545 7.994621863 16.05907995 # 25.cif O
30 1 4 0 8.868322054 8.044076184 16.45221053 # 25.cif O
31 1 1 0 8.178687918 7.205780928 15.79386908 # 25.cif C
32 1 4 0 7.874126341 6.318499925 18.70767428 # 25.cif O
33 1 4 0 9.214579812 4.119405893 19.10759914 # 25.cif O
34 1 1 0 10.30083011 3.52417947 19.36343859 # 25.cif C
35 1 4 0 11.37609294 3.711511043 18.71446855 # 25.cif O
36 1 4 0 12.60716623 5.971797756 19.12259339 # 25.cif O
37 1 1 0 12.57747952 7.21007539 19.37890142 # 25.cif C
38 1 4 0 11.88307126 8.047707463 18.72454282 # 25.cif O
39 1 4 0 9.307292727 7.982899184 19.11697055 # 25.cif O
40 1 1 0 8.247606519 7.338565557 19.36484431 # 25.cif C
41 1 2 0 8.725688526 5.066316283 17.5760767 # 25.cif Cr
42 1 2 0 12.04183163 5.07520532 17.58708811 # 25.cif Cr
43 1 2 0 10.37599517 7.942545349 17.58802525 # 25.cif Cr
44 1 4 0 10.38131074 6.027900266 17.5840424 # 25.cif O
45 1 1 0 9.316533934 0.7294101956 11.65873507 # 25.cif C
46 1 1 0 10.38920067 0.6316539069 10.54470888 # 25.cif C
47 1 1 0 10.40641364 -0.8945962205 10.71995422 # 25.cif C
48 1 1 0 9.333580164 -0.8119000358 11.8166433 # 25.cif C
49 1 1 0 10.43760236 0.8311514267 12.70458426 # 25.cif C
50 1 1 0 10.45470967 -0.6949167512 12.8798296 # 25.cif C
51 1 1 0 11.51022729 0.7484558055 11.60766089 # 25.cif C
52 1 1 0 11.52737641 -0.7926730399 11.76580341 # 25.cif C
53 1 1 0 10.39015743 -1.856453826 9.615533724 # 25.cif C
54 1 1 0 10.37914817 -2.649209027 8.708381378 # 25.cif C
55 1 1 0 10.45375291 1.793190981 13.80900476 # 25.cif C
56 1 1 0 10.46497172 2.585946183 14.7161571 # 25.cif C
57 1 5 0 8.407873351 1.365945655 11.62710657 # 25.cif H
58 1 5 0 10.3616929 1.166558986 9.572425245 # 25.cif H
59 1 5 0 8.438542659 -1.464184035 11.89020886 # 25.cif H
60 1 5 0 10.48200789 -1.22982183 13.85211324 # 25.cif H
61 1 5 0 12.40536768 1.40092119 11.53432962 # 25.cif H
62 1 5 0 12.43603699 -1.4292085 11.79743192 # 25.cif H
63 1 1 0 16.19646626 9.400923442 12.87654961 # 25.cif C
64 1 1 0 16.82425074 8.484130139 11.79672906 # 25.cif C
65 1 1 0 16.36968505 9.47617306 10.71526852 # 25.cif C
66 1 1 0 15.75503522 10.40010354 11.77798624 # 25.cif C
67 1 1 0 14.8634827 8.655696761 12.70926997 # 25.cif C
68 1 1 0 14.40891701 9.647739682 11.62780942 # 25.cif C
69 1 1 0 15.47813253 7.731766285 11.64655224 # 25.cif C
70 1 1 0 15.03670149 8.730946378 10.54798887 # 25.cif C
71 1 1 0 17.20930541 9.935169864 9.606396601 # 25.cif C
72 1 1 0 17.90167009 10.31635908 8.696667118 # 25.cif C
73 1 1 0 14.02386234 8.196699956 13.81814188 # 25.cif C
74 1 1 0 13.33170721 7.815510738 14.72787136 # 25.cif C
75 1 5 0 16.66396745 9.671514468 13.84649039 # 25.cif H
76 1 5 0 17.82661581 8.01074252 11.85366037 # 25.cif H
77 1 5 0 15.87811838 11.50261779 11.81945473 # 25.cif H
78 1 5 0 13.40644727 10.12130981 11.57064383 # 25.cif H
79 1 5 0 15.35504937 6.629252026 11.60508376 # 25.cif H
80 1 5 0 14.5692003 8.460355353 9.57804809 # 25.cif H
81 1 1 0 4.565181536 9.398367695 12.88006389 # 25.cif C
82 1 1 0 5.045135065 10.40241083 11.80211762 # 25.cif C
83 1 1 0 4.405195655 9.519465771 10.71995422 # 25.cif C
84 1 1 0 3.912705228 8.523106221 11.78056338 # 25.cif C
85 1 1 0 5.87329009 8.611858765 12.70434998 # 25.cif C
86 1 1 0 5.23335068 7.728913705 11.62218658 # 25.cif C
87 1 1 0 6.365780517 9.608218315 11.64374082 # 25.cif C
88 1 1 0 5.71330421 8.73295684 10.54424031 # 25.cif C
89 1 1 0 3.586196468 10.02393981 9.615299439 # 25.cif C
90 1 1 0 2.909612648 10.43714594 8.708147093 # 25.cif C
91 1 1 0 6.692289277 8.107384728 13.80900476 # 25.cif C
92 1 1 0 7.368975986 7.694359982 14.71639139 # 25.cif C
93 1 5 0 4.102074506 9.666041329 13.85258181 # 25.cif H
94 1 5 0 4.958571245 11.50742448 11.86350035 # 25.cif H
95 1 5 0 2.894693875 8.082501074 11.82437472 # 25.cif H
96 1 5 0 5.319915494 6.623900621 11.56056956 # 25.cif H
97 1 5 0 7.383792864 10.04882403 11.5996952 # 25.cif H
98 1 5 0 6.176412233 8.46528377 9.571488104 # 25.cif H
99 1 1 0 10.41324797 -0.7160135101 22.2549867 # 25.cif C
100 1 1 0 11.49961758 -0.7878059829 23.35729862 # 25.cif C
101 1 1 0 10.39315831 -0.9282654706 24.41392494 # 25.cif C
102 1 1 0 9.307208358 -0.871433999 23.32871583 # 25.cif C
103 1 1 0 10.35271213 0.8080989973 22.43890059 # 25.cif C
104 1 1 0 9.246147183 0.6678214591 23.4955269 # 25.cif C
105 1 1 0 11.43866208 0.7512675257 23.5241097 # 25.cif C
106 1 1 0 10.33262247 0.5958470368 24.59783883 # 25.cif C
107 1 1 0 10.4148082 -1.89596999 25.51319116 # 25.cif C
108 1 1 0 10.43016964 -2.693262514 26.41659494 # 25.cif C
109 1 1 0 10.33127178 1.775803517 21.33963437 # 25.cif C
110 1 1 0 10.31559413 2.573277427 20.43646487 # 25.cif C
111 1 5 0 10.44597383 -1.244595411 21.27942307 # 25.cif H
112 1 5 0 12.42649054 -1.397229751 23.31278443 # 25.cif H
113 1 5 0 8.430920989 -1.549578322 23.26077312 # 25.cif H
114 1 5 0 8.319379893 1.277063278 23.54004109 # 25.cif H
115 1 5 0 12.31494944 1.429411849 23.59205241 # 25.cif H
116 1 5 0 10.29989661 1.124428937 25.57340246 # 25.cif H
117 1 1 0 16.16712629 9.420440786 22.31098086 # 25.cif C
118 1 1 0 15.67528237 10.39924055 23.4067328 # 25.cif C
119 1 1 0 16.33424689 9.510037422 24.47226195 # 25.cif C
120 1 1 0 16.83886723 8.539020348 23.39361283 # 25.cif C
121 1 1 0 14.87306079 8.609633029 22.47919765 # 25.cif C
122 1 1 0 15.53202532 7.720429903 23.5447268 # 25.cif C
123 1 1 0 14.36844145 9.580650667 23.55761248 # 25.cif C
124 1 1 0 15.0401814 8.699229665 24.64047874 # 25.cif C
125 1 1 0 17.14966281 10.01082427 25.58113387 # 25.cif C
126 1 1 0 17.82355284 10.4220229 26.49180049 # 25.cif C
127 1 1 0 14.05775154 8.108664797 21.37009145 # 25.cif C
128 1 1 0 13.38417395 7.697647551 20.45965911 # 25.cif C
129 1 5 0 16.62161801 9.711346504 21.34080579 # 25.cif H
130 1 5 0 15.7431772 11.50632787 23.3624529 # 25.cif H
131 1 5 0 17.86377649 8.116301572 23.33879009 # 25.cif H
132 1 5 0 15.4644457 6.613160635 23.5890067 # 25.cif H
133 1 5 0 13.3435312 10.00336888 23.61266951 # 25.cif H
134 1 5 0 14.58589923 8.408323947 25.61065381 # 25.cif H
135 1 1 0 4.529566036 9.382002751 22.25475241 # 25.cif C
136 1 1 0 3.879939945 8.462416875 23.31911014 # 25.cif C
137 1 1 0 4.321623258 9.446315168 24.41322208 # 25.cif C
138 1 1 0 4.957939459 10.37313788 23.36596718 # 25.cif C
139 1 1 0 5.856196964 8.629379385 22.43936916 # 25.cif C
140 1 1 0 6.297880277 9.613277678 23.53348111 # 25.cif C
141 1 1 0 5.219879769 7.702556107 23.48685835 # 25.cif C
142 1 1 0 5.648254186 8.693691802 24.59783883 # 25.cif C
143 1 1 0 3.467605129 9.902730569 25.51201973 # 25.cif C
144 1 1 0 2.765466981 10.28137827 26.41518923 # 25.cif C
145 1 1 0 6.710214099 8.172963421 21.34080579 # 25.cif C
146 1 1 0 7.412560803 7.794315153 20.43787058 # 25.cif C
147 1 5 0 4.079097592 9.660185529 21.2789545 # 25.cif H
148 1 5 0 2.876403205 7.994078932 23.24343601 # 25.cif H
149 1 5 0 4.840476223 11.47638735 23.32871583 # 25.cif H
150 1 5 0 7.301416023 10.08161506 23.60938951 # 25.cif H
151 1 5 0 5.337343005 6.599306635 23.5241097 # 25.cif H
152 1 5 0 6.09872263 8.415509024 25.57363674 # 25.cif H
153 1 4 0 1.310967795 10.03125503 30.40014642 # 25.cif O
154 1 4 0 -1.264229913 10.08125182 30.79468272 # 25.cif O
155 1 1 0 -2.326452616 10.71965038 31.04747647 # 25.cif C
156 1 4 0 -2.707528829 11.73868668 30.39288358 # 25.cif O
157 1 4 0 -1.379474424 13.94311489 30.80100842 # 25.cif O
158 1 1 0 -0.2966855632 14.54347248 31.05942501 # 25.cif C
159 1 4 0 0.7794317778 14.36490585 30.40951783 # 25.cif O
160 1 4 0 2.021881777 12.10940691 30.80967697 # 25.cif O
161 1 1 0 2.000074183 10.86973055 31.05919073 # 25.cif C
162 1 4 0 0.8705257116 10.09315927 27.73562069 # 25.cif O
163 1 4 0 -1.705259778 10.02834704 28.12968842 # 25.cif O
164 1 1 0 -2.399234642 10.86489249 27.47322125 # 25.cif C
165 1 4 0 -2.426826843 12.10316956 27.72976356 # 25.cif O
166 1 4 0 -1.196909959 14.36363653 28.13859126 # 25.cif O
167 1 1 0 -0.1217510064 14.55078616 27.48962122 # 25.cif C
168 1 4 0 0.9642887449 13.95555917 27.74569496 # 25.cif O
169 1 4 0 2.304740228 11.75646401 28.14608838 # 25.cif O
170 1 1 0 1.930736482 10.73694592 27.48821551 # 25.cif C
171 1 2 0 -0.1973397265 10.13314751 29.26526885 # 25.cif Cr
172 1 2 0 -1.863066752 12.99994282 29.26573742 # 25.cif Cr
173 1 2 0 1.452967703 13.00901212 29.27745168 # 25.cif Cr
174 1 4 0 -0.2023410807 12.04761008 29.26948598 # 25.cif O
175 1 4 0 8.057262142 5.909744534 39.47260702 # 25.cif O
176 1 4 0 9.299610246 3.654064768 39.8722976 # 25.cif O
177 1 1 0 10.37530948 3.475498699 39.22215613 # 25.cif C
178 1 4 0 11.45841356 4.07567434 39.48057272 # 25.cif O
179 1 4 0 12.78689183 6.279740345 39.8879947 # 25.cif O
180 1 1 0 12.40612428 7.299320799 39.23410467 # 25.cif C
181 1 4 0 11.3444198 7.938263519 39.48760128 # 25.cif O
182 1 4 0 8.768916405 7.98771784 39.88073186 # 25.cif O
183 1 1 0 8.079282268 7.149422584 39.22239041 # 25.cif C
184 1 4 0 7.774720692 6.262141581 42.13619561 # 25.cif O
185 1 4 0 9.115174162 4.063047549 42.53612047 # 25.cif O
186 1 1 0 10.20142446 3.467821126 42.79195992 # 25.cif C
187 1 4 0 11.27668729 3.655152699 42.14298988 # 25.cif O
188 1 4 0 12.50776058 5.915439412 42.55111472 # 25.cif O
189 1 1 0 12.47807387 7.153717046 42.80742275 # 25.cif C
190 1 4 0 11.78366561 7.991349119 42.15306415 # 25.cif O
191 1 4 0 9.207887077 7.92654084 42.54549188 # 25.cif O
192 1 1 0 8.148200869 7.282207213 42.79336563 # 25.cif C
193 1 2 0 8.626282876 5.009957939 41.00459803 # 25.cif Cr
194 1 2 0 11.94242598 5.018846976 41.01560944 # 25.cif Cr
195 1 2 0 10.27658952 7.886187005 41.01654658 # 25.cif Cr
196 1 4 0 10.28190509 5.971541922 41.01256373 # 25.cif O
197 1 1 0 9.217128284 0.6730518516 35.0872564 # 25.cif C
198 1 1 0 10.28979502 0.5752955629 33.97323021 # 25.cif C
199 1 1 0 10.30700799 -0.9509545645 34.14847555 # 25.cif C
200 1 1 0 9.234174515 -0.8682583798 35.24516463 # 25.cif C
201 1 1 0 10.33819671 0.7747930827 36.13310559 # 25.cif C
202 1 1 0 10.35530402 -0.7512750952 36.30835093 # 25.cif C
203 1 1 0 11.41082164 0.6920974615 35.03618222 # 25.cif C
204 1 1 0 11.42797076 -0.8490313839 35.19432474 # 25.cif C
205 1 1 0 10.29075178 -1.91281217 33.04405505 # 25.cif C
206 1 1 0 10.27974252 -2.705567371 32.13690271 # 25.cif C
207 1 1 0 10.35434726 1.736832637 37.23752609 # 25.cif C
208 1 1 0 10.36556607 2.529587839 38.14467843 # 25.cif C
209 1 5 0 8.308467702 1.309587311 35.0556279 # 25.cif H
210 1 5 0 10.26228725 1.110200642 33.00094657 # 25.cif H
211 1 5 0 8.33913701 -1.520542379 35.31873019 # 25.cif H
212 1 5 0 10.38260224 -1.286180174 37.28063457 # 25.cif H
213 1 5 0 12.30596203 1.344562846 34.96285095 # 25.cif H
214 1 5 0 12.33663134 -1.485566844 35.22595325 # 25.cif H
215 1 1 0 16.09706061 9.344565098 36.30507094 # 25.cif C
216 1 1 0 16.72484509 8.427771795 35.22525039 # 25.cif C
217 1 1 0 16.2702794 9.419814716 34.14378984 # 25.cif C
218 1 1 0 15.65562957 10.34374519 35.20650757 # 25.cif C
219 1 1 0 14.76407705 8.599338417 36.1377913 # 25.cif C
220 1 1 0 14.30951136 9.591381338 35.05633075 # 25.cif C
221 1 1 0 15.37872688 7.675407941 35.07507357 # 25.cif C
222 1 1 0 14.93729584 8.674588034 33.9765102 # 25.cif C
223 1 1 0 17.10989976 9.87881152 33.03491793 # 25.cif C
224 1 1 0 17.80226444 10.26000074 32.12518845 # 25.cif C
225 1 1 0 13.92445669 8.140341612 37.24666321 # 25.cif C
226 1 1 0 13.23230156 7.759152394 38.15639269 # 25.cif C
227 1 5 0 16.5645618 9.615156124 37.27501172 # 25.cif H
228 1 5 0 17.72721016 7.954384176 35.2821817 # 25.cif H
229 1 5 0 15.77871273 11.44625945 35.24797606 # 25.cif H
230 1 5 0 13.30704162 10.06495147 34.99916516 # 25.cif H
231 1 5 0 15.25564372 6.572893682 35.03360509 # 25.cif H
232 1 5 0 14.46979465 8.403997009 33.00656942 # 25.cif H
233 1 1 0 4.465775886 9.342009351 36.30858522 # 25.cif C
234 1 1 0 4.945729415 10.34605249 35.23063895 # 25.cif C
235 1 1 0 4.305790005 9.463107427 34.14847555 # 25.cif C
236 1 1 0 3.813299578 8.466747877 35.20908471 # 25.cif C
237 1 1 0 5.77388444 8.555500421 36.13287131 # 25.cif C
238 1 1 0 5.13394503 7.672555361 35.05070791 # 25.cif C
239 1 1 0 6.266374867 9.551859971 35.07226215 # 25.cif C
240 1 1 0 5.61389856 8.676598496 33.97276164 # 25.cif C
241 1 1 0 3.486790818 9.967581464 33.04382077 # 25.cif C
242 1 1 0 2.810206998 10.3807876 32.13666842 # 25.cif C
243 1 1 0 6.592883627 8.051026384 37.23752609 # 25.cif C
244 1 1 0 7.269570336 7.638001638 38.14491272 # 25.cif C
245 1 5 0 4.002668857 9.609682985 37.28110314 # 25.cif H
246 1 5 0 4.859165596 11.45106613 35.29202168 # 25.cif H
247 1 5 0 2.795288226 8.02614273 35.25289604 # 25.cif H
248 1 5 0 5.220509844 6.567542277 34.98909089 # 25.cif H
249 1 5 0 7.284387214 9.992465681 35.02821653 # 25.cif H
250 1 5 0 6.077006583 8.408925426 33.00000943 # 25.cif H
251 1 1 0 10.31384232 -0.7723718541 45.68350803 # 25.cif C
252 1 1 0 11.40021193 -0.8441643269 46.78581995 # 25.cif C
253 1 1 0 10.29375266 -0.9846238146 47.84244627 # 25.cif C
254 1 1 0 9.207802709 -0.927792343 46.75723716 # 25.cif C
255 1 1 0 10.25330648 0.7517406534 45.86742192 # 25.cif C
256 1 1 0 9.146741534 0.6114631151 46.92404823 # 25.cif C
257 1 1 0 11.33925643 0.6949091817 46.95263103 # 25.cif C
258 1 1 0 10.23321682 0.5394886928 48.02636016 # 25.cif C
259 1 1 0 10.31540255 -1.952328334 48.94171249 # 25.cif C
260 1 1 0 10.33076399 -2.749620858 49.84511627 # 25.cif C
261 1 1 0 10.23186613 1.719445173 44.7681557 # 25.cif C
262 1 1 0 10.21618848 2.516919083 43.8649862 # 25.cif C
263 1 5 0 10.34656818 -1.300953755 44.7079444 # 25.cif H
264 1 5 0 12.32708489 -1.453588095 46.74130576 # 25.cif H
265 1 5 0 8.33151534 -1.605936666 46.68929445 # 25.cif H
266 1 5 0 8.219974243 1.220704934 46.96856242 # 25.cif H
267 1 5 0 12.2155438 1.373053505 47.02057374 # 25.cif H
268 1 5 0 10.20049096 1.068070593 49.00192379 # 25.cif H
269 1 1 0 16.06772064 9.364082442 45.73950219 # 25.cif C
270 1 1 0 15.57587672 10.3428822 46.83525413 # 25.cif C
271 1 1 0 16.23484124 9.453679078 47.90078328 # 25.cif C
272 1 1 0 16.73946158 8.482662004 46.82213416 # 25.cif C
273 1 1 0 14.77365514 8.553274685 45.90771898 # 25.cif C
274 1 1 0 15.43261967 7.664071559 46.97324813 # 25.cif C
275 1 1 0 14.26903581 9.524292323 46.98613381 # 25.cif C
276 1 1 0 14.94077575 8.642871321 48.06900007 # 25.cif C
277 1 1 0 17.05025716 9.954465924 49.0096552 # 25.cif C
278 1 1 0 17.72414719 10.36566456 49.92032182 # 25.cif C
279 1 1 0 13.95834589 8.052306453 44.79861278 # 25.cif C
280 1 1 0 13.2847683 7.641289207 43.88818044 # 25.cif C
281 1 5 0 16.52221236 9.65498816 44.76932712 # 25.cif H
282 1 5 0 15.64377155 11.44996952 46.79097423 # 25.cif H
283 1 5 0 17.76437084 8.059943228 46.76731142 # 25.cif H
284 1 5 0 15.36504005 6.556802291 47.01752803 # 25.cif H
285 1 5 0 13.24412555 9.947010535 47.04119084 # 25.cif H
286 1 5 0 14.48649358 8.351965603 49.03917514 # 25.cif H
287 1 1 0 4.430160386 9.325644407 45.68327374 # 25.cif C
288 1 1 0 3.780534295 8.406058531 46.74763146 # 25.cif C
289 1 1 0 4.222217608 9.389956824 47.84174341 # 25.cif C
290 1 1 0 4.85853381 10.31677954 46.79448851 # 25.cif C
291 1 1 0 5.756791314 8.573021041 45.86789049 # 25.cif C
292 1 1 0 6.198474627 9.556919334 46.96200243 # 25.cif C
293 1 1 0 5.120474119 7.646197763 46.91537968 # 25.cif C
294 1 1 0 5.548848536 8.637333458 48.02636016 # 25.cif C
295 1 1 0 3.368199479 9.846372225 48.94054106 # 25.cif C
296 1 1 0 2.666061331 10.22501993 49.84371056 # 25.cif C
297 1 1 0 6.610808449 8.116605077 44.76932712 # 25.cif C
298 1 1 0 7.313155153 7.737956809 43.86639191 # 25.cif C
299 1 5 0 3.979691942 9.603827185 44.70747583 # 25.cif H
300 1 5 0 2.776997556 7.937720588 46.67195734 # 25.cif H
301 1 5 0 4.741070573 11.42002901 46.75723716 # 25.cif H
302 1 5 0 7.202010373 10.02525671 47.03791084 # 25.cif H
303 1 5 0 5.237937356 6.542948291 46.95263103 # 25.cif H
304 1 5 0 5.99931698 8.35915068 49.00215807 # 25.cif H
305 1 4 0 -9.156311227 28.28256409 6.971625092 # 25.cif O
306 1 4 0 -11.73150894 28.33256088 7.366161391 # 25.cif O
307 1 1 0 -12.79373164 28.97095944 7.618955136 # 25.cif C
308 1 4 0 -13.17480785 29.98999574 6.96436225 # 25.cif O
309 1 4 0 -11.84675345 32.19442395 7.372487092 # 25.cif O
310 1 1 0 -10.76396459 32.79478154 7.630903682 # 25.cif C
311 1 4 0 -9.687847244 32.61621491 6.980996501 # 25.cif O
312 1 4 0 -8.445397245 30.36071597 7.381155645 # 25.cif O
313 1 1 0 -8.467204839 29.12103961 7.630669397 # 25.cif C
314 1 4 0 -9.596753311 28.34446833 4.307099361 # 25.cif O
315 1 4 0 -12.1725388 28.2796561 4.70116709 # 25.cif O
316 1 1 0 -12.86651366 29.11620155 4.044699922 # 25.cif C
317 1 4 0 -12.89410587 30.35447862 4.301242231 # 25.cif O
318 1 4 0 -11.66418898 32.61494559 4.710069928 # 25.cif O
319 1 1 0 -10.58903003 32.80209522 4.061099887 # 25.cif C
320 1 4 0 -9.502990277 32.20686823 4.317173625 # 25.cif O
321 1 4 0 -8.162538795 30.00777307 4.717567055 # 25.cif O
322 1 1 0 -8.53654254 28.98825498 4.059694176 # 25.cif C
323 1 2 0 -10.66461875 28.38445657 5.836747519 # 25.cif Cr
324 1 2 0 -12.33034577 31.25125188 5.837216089 # 25.cif Cr
325 1 2 0 -9.014311319 31.26032118 5.84893035 # 25.cif Cr
326 1 4 0 -10.6696201 30.29891914 5.840964653 # 25.cif O
327 1 4 0 -2.410016881 24.16105359 16.04408569 # 25.cif O
328 1 4 0 -1.167668776 21.90537383 16.44377627 # 25.cif O
329 1 1 0 -0.09196954133 21.72680776 15.7936348 # 25.cif C
330 1 4 0 0.9911345365 22.3269834 16.05205139 # 25.cif O
331 1 4 0 2.319612807 24.5310494 16.45947337 # 25.cif O
332 1 1 0 1.938845261 25.55062986 15.80558334 # 25.cif C
333 1 4 0 0.8771407758 26.18957258 16.05907995 # 25.cif O
334 1 4 0 -1.698362618 26.2390269 16.45221053 # 25.cif O
335 1 1 0 -2.387996754 25.40073164 15.79386908 # 25.cif C
336 1 4 0 -2.692558331 24.51345064 18.70767428 # 25.cif O
337 1 4 0 -1.35210486 22.31435661 19.10759914 # 25.cif O
338 1 1 0 -0.2658545644 21.71913019 19.36343859 # 25.cif C
339 1 4 0 0.8094082716 21.90646176 18.71446855 # 25.cif O
340 1 4 0 2.040481554 24.16674847 19.12259339 # 25.cif O
341 1 1 0 2.010794847 25.4050261 19.37890142 # 25.cif C
342 1 4 0 1.316386586 26.24265818 18.72454282 # 25.cif O
343 1 4 0 -1.259391945 26.1778499 19.11697055 # 25.cif O
344 1 1 0 -2.319078153 25.53351627 19.36484431 # 25.cif C
345 1 2 0 -1.840996146 23.261267 17.5760767 # 25.cif Cr
346 1 2 0 1.475146958 23.27015604 17.58708811 # 25.cif Cr
347 1 2 0 -0.1906895057 26.13749606 17.58802525 # 25.cif Cr
348 1 4 0 -0.1853739287 24.22285098 17.5840424 # 25.cif O
349 1 1 0 -1.250150738 18.92436091 11.65873507 # 25.cif C
350 1 1 0 -0.1774840004 18.82660462 10.54470888 # 25.cif C
351 1 1 0 -0.1602710281 17.30035449 10.71995422 # 25.cif C
352 1 1 0 -1.233104508 17.38305068 11.8166433 # 25.cif C
353 1 1 0 -0.1290823098 19.02610214 12.70458426 # 25.cif C
354 1 1 0 -0.1119750043 17.50003396 12.8798296 # 25.cif C
355 1 1 0 0.9435426138 18.94340652 11.60766089 # 25.cif C
356 1 1 0 0.9606917337 17.40227768 11.76580341 # 25.cif C
357 1 1 0 -0.1765272413 16.33849689 9.615533724 # 25.cif C
358 1 1 0 -0.1875365012 15.54574169 8.708381378 # 25.cif C
359 1 1 0 -0.1129317635 19.9881417 13.80900476 # 25.cif C
360 1 1 0 -0.1017129535 20.7808969 14.7161571 # 25.cif C
361 1 5 0 -2.158811321 19.56089637 11.62710657 # 25.cif H
362 1 5 0 -0.2049917763 19.3615097 9.572425245 # 25.cif H
363 1 5 0 -2.128142013 16.73076668 11.89020886 # 25.cif H
364 1 5 0 -0.08467677844 16.96512889 13.85211324 # 25.cif H
365 1 5 0 1.838683008 19.59587191 11.53432962 # 25.cif H
366 1 5 0 1.869352316 16.76574222 11.79743192 # 25.cif H
367 1 1 0 5.629781588 27.59587416 12.87654961 # 25.cif C
368 1 1 0 6.257566071 26.67908085 11.79672906 # 25.cif C
369 1 1 0 5.803000374 27.67112378 10.71526852 # 25.cif C
370 1 1 0 5.18835055 28.59505425 11.77798624 # 25.cif C
371 1 1 0 4.296798033 26.85064748 12.70926997 # 25.cif C
372 1 1 0 3.842232335 27.8426904 11.62780942 # 25.cif C
373 1 1 0 4.911447856 25.926717 11.64655224 # 25.cif C
374 1 1 0 4.470016818 26.92589709 10.54798887 # 25.cif C
375 1 1 0 6.642620742 28.13012058 9.606396601 # 25.cif C
376 1 1 0 7.334985421 28.5113098 8.696667118 # 25.cif C
377 1 1 0 3.457177665 26.39165067 13.81814188 # 25.cif C
378 1 1 0 2.765022535 26.01046145 14.72787136 # 25.cif C
379 1 5 0 6.097282775 27.86646518 13.84649039 # 25.cif H
380 1 5 0 7.259931134 26.20569324 11.85366037 # 25.cif H
381 1 5 0 5.311433711 29.69756851 11.81945473 # 25.cif H
382 1 5 0 2.8397626 28.31626053 11.57064383 # 25.cif H
383 1 5 0 4.788364696 24.82420274 11.60508376 # 25.cif H
384 1 5 0 4.002515632 26.65530607 9.57804809 # 25.cif H
385 1 1 0 -6.001503137 27.59331841 12.88006389 # 25.cif C
386 1 1 0 -5.521549607 28.59736155 11.80211762 # 25.cif C
387 1 1 0 -6.161489017 27.71441649 10.71995422 # 25.cif C
388 1 1 0 -6.653979444 26.71805694 11.78056338 # 25.cif C
389 1 1 0 -4.693394582 26.80680948 12.70434998 # 25.cif C
390 1 1 0 -5.333333992 25.92386442 11.62218658 # 25.cif C
391 1 1 0 -4.200904155 27.80316903 11.64374082 # 25.cif C
392 1 1 0 -4.853380463 26.92790756 10.54424031 # 25.cif C
393 1 1 0 -6.980488204 28.21889052 9.615299439 # 25.cif C
394 1 1 0 -7.657072024 28.63209665 8.708147093 # 25.cif C
395 1 1 0 -3.874395395 26.30233544 13.80900476 # 25.cif C
396 1 1 0 -3.197708686 25.8893107 14.71639139 # 25.cif C
397 1 5 0 -6.464610166 27.86099204 13.85258181 # 25.cif H
398 1 5 0 -5.608113427 29.70237519 11.86350035 # 25.cif H
399 1 5 0 -7.671990797 26.27745179 11.82437472 # 25.cif H
400 1 5 0 -5.246769178 24.81885134 11.56056956 # 25.cif H
401 1 5 0 -3.182891808 28.24377474 11.5996952 # 25.cif H
402 1 5 0 -4.390272439 26.66023449 9.571488104 # 25.cif H
403 1 1 0 -0.1534367039 17.47893721 22.2549867 # 25.cif C
404 1 1 0 0.932932912 17.40714473 23.35729862 # 25.cif C
405 1 1 0 -0.173526363 17.26668524 24.41392494 # 25.cif C
406 1 1 0 -1.259476314 17.32351672 23.32871583 # 25.cif C
407 1 1 0 -0.2139725469 19.00304971 22.43890059 # 25.cif C
408 1 1 0 -1.320537489 18.86277217 23.4955269 # 25.cif C
409 1 1 0 0.8719774037 18.94621824 23.5241097 # 25.cif C
410 1 1 0 -0.234062206 18.79079775 24.59783883 # 25.cif C
411 1 1 0 -0.1518764711 16.29898073 25.51319116 # 25.cif C
412 1 1 0 -0.1365150327 15.5016882 26.41659494 # 25.cif C
413 1 1 0 -0.2354128889 19.97075423 21.33963437 # 25.cif C
414 1 1 0 -0.2510905381 20.76822814 20.43646487 # 25.cif C
415 1 5 0 -0.1207108439 16.9503553 21.27942307 # 25.cif H
416 1 5 0 1.859805869 16.79772096 23.31278443 # 25.cif H
417 1 5 0 -2.135763683 16.64537239 23.26077312 # 25.cif H
418 1 5 0 -2.247304779 19.47201399 23.54004109 # 25.cif H
419 1 5 0 1.748264773 19.62436256 23.59205241 # 25.cif H
420 1 5 0 -0.266788066 19.31937965 25.57340246 # 25.cif H
421 1 1 0 5.600441619 27.6153915 22.31098086 # 25.cif C
422 1 1 0 5.108597695 28.59419126 23.4067328 # 25.cif C
423 1 1 0 5.767562221 27.70498814 24.47226195 # 25.cif C
424 1 1 0 6.272182554 26.73397106 23.39361283 # 25.cif C
425 1 1 0 4.306376122 26.80458374 22.47919765 # 25.cif C
426 1 1 0 4.965340647 25.91538062 23.5447268 # 25.cif C
427 1 1 0 3.801756783 27.77560138 23.55761248 # 25.cif C
428 1 1 0 4.473496723 26.89418038 24.64047874 # 25.cif C
429 1 1 0 6.582978136 28.20577498 25.58113387 # 25.cif C
430 1 1 0 7.256868163 28.61697362 26.49180049 # 25.cif C
431 1 1 0 3.491066867 26.30361551 21.37009145 # 25.cif C
432 1 1 0 2.817489279 25.89259827 20.45965911 # 25.cif C
433 1 5 0 6.054933338 27.90629722 21.34080579 # 25.cif H
434 1 5 0 5.176492527 29.70127858 23.3624529 # 25.cif H
435 1 5 0 7.297091815 26.31125229 23.33879009 # 25.cif H
436 1 5 0 4.897761032 24.80811135 23.5890067 # 25.cif H
437 1 5 0 2.776846528 28.19831959 23.61266951 # 25.cif H
438 1 5 0 4.019214554 26.60327466 25.61065381 # 25.cif H
439 1 1 0 -6.037118636 27.57695347 22.25475241 # 25.cif C
440 1 1 0 -6.686744727 26.65736759 23.31911014 # 25.cif C
441 1 1 0 -6.245061414 27.64126588 24.41322208 # 25.cif C
442 1 1 0 -5.608745213 28.5680886 23.36596718 # 25.cif C
443 1 1 0 -4.710487708 26.8243301 22.43936916 # 25.cif C
444 1 1 0 -4.268804395 27.80822839 23.53348111 # 25.cif C
445 1 1 0 -5.346804903 25.89750682 23.48685835 # 25.cif C
446 1 1 0 -4.918430486 26.88864252 24.59783883 # 25.cif C
447 1 1 0 -7.099079543 28.09768128 25.51201973 # 25.cif C
448 1 1 0 -7.801217691 28.47632899 26.41518923 # 25.cif C
449 1 1 0 -3.856470573 26.36791414 21.34080579 # 25.cif C
450 1 1 0 -3.154123869 25.98926587 20.43787058 # 25.cif C
451 1 5 0 -6.48758708 27.85513624 21.2789545 # 25.cif H
452 1 5 0 -7.690281467 26.18902965 23.24343601 # 25.cif H
453 1 5 0 -5.726208449 29.67133807 23.32871583 # 25.cif H
454 1 5 0 -3.26526865 28.27656577 23.60938951 # 25.cif H
455 1 5 0 -5.229341667 24.79425735 23.5241097 # 25.cif H
456 1 5 0 -4.467962042 26.61045974 25.57363674 # 25.cif H
457 1 4 0 -9.255716877 28.22620575 30.40014642 # 25.cif O
458 1 4 0 -11.83091459 28.27620254 30.79468272 # 25.cif O
459 1 1 0 -12.89313729 28.9146011 31.04747647 # 25.cif C
460 1 4 0 -13.2742135 29.9336374 30.39288358 # 25.cif O
461 1 4 0 -11.9461591 32.13806561 30.80100842 # 25.cif O
462 1 1 0 -10.86337024 32.7384232 31.05942501 # 25.cif C
463 1 4 0 -9.787252894 32.55985657 30.40951783 # 25.cif O
464 1 4 0 -8.544802895 30.30435762 30.80967697 # 25.cif O
465 1 1 0 -8.566610489 29.06468126 31.05919073 # 25.cif C
466 1 4 0 -9.69615896 28.28810998 27.73562069 # 25.cif O
467 1 4 0 -12.27194445 28.22329776 28.12968842 # 25.cif O
468 1 1 0 -12.96591931 29.05984321 27.47322125 # 25.cif C
469 1 4 0 -12.99351151 30.29812028 27.72976356 # 25.cif O
470 1 4 0 -11.76359463 32.55858725 28.13859126 # 25.cif O
471 1 1 0 -10.68843568 32.74573687 27.48962122 # 25.cif C
472 1 4 0 -9.602395927 32.15050989 27.74569496 # 25.cif O
473 1 4 0 -8.261944444 29.95141473 28.14608838 # 25.cif O
474 1 1 0 -8.63594819 28.93189664 27.48821551 # 25.cif C
475 1 2 0 -10.7640244 28.32809823 29.26526885 # 25.cif Cr
476 1 2 0 -12.42975142 31.19489354 29.26573742 # 25.cif Cr
477 1 2 0 -9.113716969 31.20396283 29.27745168 # 25.cif Cr
478 1 4 0 -10.76902575 30.2425608 29.26948598 # 25.cif O
479 1 4 0 -2.50942253 24.10469525 39.47260702 # 25.cif O
480 1 4 0 -1.267074426 21.84901548 39.8722976 # 25.cif O
481 1 1 0 -0.1913751911 21.67044941 39.22215613 # 25.cif C
482 1 4 0 0.8917288867 22.27062505 39.48057272 # 25.cif O
483 1 4 0 2.220207157 24.47469106 39.8879947 # 25.cif O
484 1 1 0 1.839439611 25.49427151 39.23410467 # 25.cif C
485 1 4 0 0.777735126 26.13321423 39.48760128 # 25.cif O
486 1 4 0 -1.797768267 26.18266856 39.88073186 # 25.cif O
487 1 1 0 -2.487402404 25.3443733 39.22239041 # 25.cif C
488 1 4 0 -2.79196398 24.4570923 42.13619561 # 25.cif O
489 1 4 0 -1.45151051 22.25799826 42.53612047 # 25.cif O
490 1 1 0 -0.3652602142 21.66277184 42.79195992 # 25.cif C
491 1 4 0 0.7100026218 21.85010341 42.14298988 # 25.cif O
492 1 4 0 1.941075904 24.11039013 42.55111472 # 25.cif O
493 1 1 0 1.911389197 25.34866776 42.80742275 # 25.cif C
494 1 4 0 1.216980936 26.18629983 42.15306415 # 25.cif O
495 1 4 0 -1.358797595 26.12149156 42.54549188 # 25.cif O
496 1 1 0 -2.418483803 25.47715793 42.79336563 # 25.cif C
497 1 2 0 -1.940401796 23.20490865 41.00459803 # 25.cif Cr
498 1 2 0 1.375741308 23.21379769 41.01560944 # 25.cif Cr
499 1 2 0 -0.2900951555 26.08113772 41.01654658 # 25.cif Cr
500 1 4 0 -0.2847795785 24.16649264 41.01256373 # 25.cif O
501 1 1 0 -1.349556388 18.86800257 35.0872564 # 25.cif C
502 1 1 0 -0.2768896502 18.77024628 33.97323021 # 25.cif C
503 1 1 0 -0.2596766778 17.24399615 34.14847555 # 25.cif C
504 1 1 0 -1.332510157 17.32669234 35.24516463 # 25.cif C
505 1 1 0 -0.2284879596 18.9697438 36.13310559 # 25.cif C
506 1 1 0 -0.2113806541 17.44367562 36.30835093 # 25.cif C
507 1 1 0 0.844136964 18.88704818 35.03618222 # 25.cif C
508 1 1 0 0.8612860839 17.34591933 35.19432474 # 25.cif C
509 1 1 0 -0.275932891 16.28213855 33.04405505 # 25.cif C
510 1 1 0 -0.286942151 15.48938334 32.13690271 # 25.cif C
511 1 1 0 -0.2123374132 19.93178335 37.23752609 # 25.cif C
512 1 1 0 -0.2011186033 20.72453855 38.14467843 # 25.cif C
513 1 5 0 -2.25821697 19.50453803 35.0556279 # 25.cif H
514 1 5 0 -0.3043974261 19.30515136 33.00094657 # 25.cif H
515 1 5 0 -2.227547663 16.67440834 35.31873019 # 25.cif H