# LAMMPS data file written by WriteLammpsdata function in RASPA(written by Zhao Li)
1797 atoms
0 bonds
0 angles
0 dihedrals
0 impropers
0 38.3703 xlo xhi
0 38.3703 ylo yhi
0 38.3703 zlo zhi
2.34951e-15 2.34951e-15 2.34951e-15 xy xz yz

18 atom types
0 bond types
0 angle types
0 dihedral types
0 improper types

Masses

1 0 # C
2 0 # H
3 0 # N
4 0 # P
5 0 # Ni
6 0 # Ht
7 0 # OT
8 0 # Op
9 0 # Ow
10 0 # Hw
11 0 # Lw
12 0 # Zr
13 0 # Cl
14 0 # O
15 0 # Si
16 0 # CH4
17 0 # C_co2
18 0 # O_co2

Pair Coeffs

1 0.104809 3.43 # C
2 0.0439235 2.57 # H
3 0.0688809 3.26 # N
4 0.304449 3.69 # P
5 0.0149784 2.52 # Ni
6 0 0 # Ht
7 0.184502 3.02 # OT
8 0.154744 3.154 # Op
9 0.154744 3.154 # Ow
10 0 0 # Hw
11 0 0 # Lw
12 0.0688851 2.78317 # Zr
13 0.0998719 4.3 # Cl
14 0.105147 3.3 # O
15 0.0436457 2.3 # Si
16 0.314448 3.72 # CH4
17 0.059384 2.745 # C_co2
18 0.169962 3.017 # O_co2

Atoms

1 2 18 -0.3256 17.2628 29.3881 33.6145 # O_co2
2 2 17 0.6512 16.2269 29.8291 33.8939 # C_co2
3 2 18 -0.3256 15.191 30.27 34.1733 # O_co2
4 3 18 -0.3256 34.9956 22.1302 28.989 # O_co2
5 3 17 0.6512 33.9426 21.6886 28.7849 # C_co2
6 3 18 -0.3256 32.8895 21.2471 28.5809 # O_co2
7 4 18 -0.3256 29.1711 16.0386 5.65732 # O_co2
8 4 17 0.6512 28.0602 16.2416 5.39206 # C_co2
9 4 18 -0.3256 26.9493 16.4446 5.1268 # O_co2
10 5 18 -0.3256 19.3781 2.78897 35.2546 # O_co2
11 5 17 0.6512 19.4106 3.94524 35.1676 # C_co2
12 5 18 -0.3256 19.4431 5.10151 35.0805 # O_co2
13 6 18 -0.3256 8.482 2.78674 38.253 # O_co2
14 6 17 0.6512 7.40507 2.83568 38.6813 # C_co2
15 6 18 -0.3256 6.32815 2.88462 39.1096 # O_co2
16 7 18 -0.3256 36.5426 26.5893 5.34609 # O_co2
17 7 17 0.6512 36.5707 27.1262 4.31819 # C_co2
18 7 18 -0.3256 36.5988 27.6631 3.29029 # O_co2
19 8 18 -0.3256 32.4967 36.3751 20.1843 # O_co2
20 8 17 0.6512 33.5088 36.0277 20.6323 # C_co2
21 8 18 -0.3256 34.5208 35.6804 21.0803 # O_co2
22 9 18 -0.3256 0.488068 10.0783 11.5342 # O_co2
23 9 17 0.6512 1.36964 10.6373 12.0401 # C_co2
24 9 18 -0.3256 2.25121 11.1964 12.5459 # O_co2
25 10 18 -0.3256 24.7009 6.81238 11.158 # O_co2
26 10 17 0.6512 25.0397 6.82693 12.2674 # C_co2
27 10 18 -0.3256 25.3785 6.84147 13.3767 # O_co2
28 11 18 -0.3256 25.9842 3.47915 13.9138 # O_co2
29 11 17 0.6512 26.3044 3.68939 12.8189 # C_co2
30 11 18 -0.3256 26.6246 3.89963 11.724 # O_co2
31 12 18 -0.3256 14.0097 33.857 1.13928 # O_co2
32 12 17 0.6512 14.6167 34.0604 2.10662 # C_co2
33 12 18 -0.3256 15.2237 34.2639 3.07396 # O_co2
34 13 18 -0.3256 21.6084 7.88951 12.1993 # O_co2
35 13 17 0.6512 20.9946 7.34759 11.3776 # C_co2
36 13 18 -0.3256 20.3808 6.80567 10.5559 # O_co2
37 14 18 -0.3256 15.3554 7.16692 32.4891 # O_co2
38 14 17 0.6512 15.5945 7.14169 31.3543 # C_co2
39 14 18 -0.3256 15.8335 7.11647 30.2194 # O_co2
40 15 18 -0.3256 31.2585 25.5417 0.765857 # O_co2
41 15 17 0.6512 30.6077 26.4426 0.433666 # C_co2
42 15 18 -0.3256 29.9569 27.3436 0.101476 # O_co2
43 16 18 -0.3256 29.0267 16.7201 14.3183 # O_co2
44 16 17 0.6512 28.5067 17.1304 13.366 # C_co2
45 16 18 -0.3256 27.9867 17.5407 12.4138 # O_co2
46 17 18 -0.3256 10.2113 0.869903 17.3688 # O_co2
47 17 17 0.6512 11.344 1.11825 17.3981 # C_co2
48 17 18 -0.3256 12.4768 1.36659 17.4274 # O_co2
49 18 18 -0.3256 23.6959 38.1543 14.5624 # O_co2
50 18 17 0.6512 23.943 38.415 15.6654 # C_co2
51 18 18 -0.3256 24.1901 38.6758 16.7684 # O_co2
52 19 18 -0.3256 25.0233 31.8674 17.619 # O_co2
53 19 17 0.6512 25.642 30.8932 17.5018 # C_co2
54 19 18 -0.3256 26.2606 29.919 17.3846 # O_co2
55 20 18 -0.3256 16.9958 19.6614 2.0765 # O_co2
56 20 17 0.6512 16.6907 20.1628 1.07593 # C_co2
57 20 18 -0.3256 16.3856 20.6642 0.0753663 # O_co2
58 21 18 -0.3256 19.3573 0.437264 0.931592 # O_co2
59 21 17 0.6512 18.3208 0.0263035 0.611551 # C_co2
60 21 18 -0.3256 17.2843 -0.384657 0.29151 # O_co2
61 22 18 -0.3256 23.0118 36.0599 33.7479 # O_co2
62 22 17 0.6512 22.8549 35.4948 34.7487 # C_co2
63 22 18 -0.3256 22.6981 34.9297 35.7495 # O_co2
64 23 18 -0.3256 12.4032 28.2118 22.7955 # O_co2
65 23 17 0.6512 12.8651 28.2291 23.8595 # C_co2
66 23 18 -0.3256 13.327 28.2464 24.9234 # O_co2
67 24 18 -0.3256 21.8311 32.8198 9.11177 # O_co2
68 24 17 0.6512 22.6658 33.5274 9.49683 # C_co2
69 24 18 -0.3256 23.5004 34.235 9.88188 # O_co2
70 25 18 -0.3256 0.665825 23.7455 5.25945 # O_co2
71 25 17 0.6512 1.30349 22.7865 5.39845 # C_co2
72 25 18 -0.3256 1.94116 21.8275 5.53745 # O_co2
73 26 18 -0.3256 36.7212 37.353 9.81698 # O_co2
74 26 17 0.6512 37.0402 37.7915 10.8425 # C_co2
75 26 18 -0.3256 37.3591 38.23 11.8679 # O_co2
76 27 18 -0.3256 31.1369 34.3906 14.3385 # O_co2
77 27 17 0.6512 30.0821 34.831 14.1412 # C_co2
78 27 18 -0.3256 29.0272 35.2715 13.9439 # O_co2
79 28 18 -0.3256 19.1258 11.2451 20.9829 # O_co2
80 28 17 0.6512 19.3827 11.2588 19.8518 # C_co2
81 28 18 -0.3256 19.6395 11.2725 18.7206 # O_co2
82 29 18 -0.3256 7.38275 6.60282 23.6892 # O_co2
83 29 17 0.6512 7.08382 7.71472 23.548 # C_co2
84 29 18 -0.3256 6.78489 8.82662 23.4069 # O_co2
85 30 18 -0.3256 28.9001 28.8247 20.3626 # O_co2
86 30 17 0.6512 27.99 29.3664 20.8357 # C_co2
87 30 18 -0.3256 27.0799 29.9081 21.3088 # O_co2
88 31 18 -0.3256 0.955574 32.0234 4.62868 # O_co2
89 31 17 0.6512 1.35022 32.9022 5.27478 # C_co2
90 31 18 -0.3256 1.74488 33.7811 5.92088 # O_co2
91 32 18 -0.3256 36.0205 27.4443 30.2616 # O_co2
92 32 17 0.6512 37.0615 27.06 29.9236 # C_co2
93 32 18 -0.3256 38.1025 26.6758 29.5856 # O_co2
94 33 18 -0.3256 33.6055 30.4277 37.4899 # O_co2
95 33 17 0.6512 33.8451 30.3176 36.3603 # C_co2
96 33 18 -0.3256 34.0847 30.2074 35.2307 # O_co2
97 34 18 -0.3256 14.7563 35.39 30.0983 # O_co2
98 34 17 0.6512 15.8794 35.1118 30.0155 # C_co2
99 34 18 -0.3256 17.0025 34.8336 29.9327 # O_co2
100 35 18 -0.3256 24.6912 27.9577 19.8287 # O_co2
101 35 17 0.6512 24.0538 27.0305 19.5465 # C_co2
102 35 18 -0.3256 23.4164 26.1033 19.2643 # O_co2
103 36 18 -0.3256 32.8878 9.0563 4.26353 # O_co2
104 36 17 0.6512 33.6275 8.65959 5.06417 # C_co2
105 36 18 -0.3256 34.3672 8.26288 5.86481 # O_co2
106 37 18 -0.3256 25.4793 35.222 12.8733 # O_co2
107 37 17 0.6512 24.3432 34.9923 12.9203 # C_co2
108 37 18 -0.3256 23.2072 34.7627 12.9674 # O_co2
109 38 18 -0.3256 24.1677 36.673 24.9339 # O_co2
110 38 17 0.6512 23.4284 37.4944 25.2864 # C_co2
111 38 18 -0.3256 22.6891 38.3159 25.6389 # O_co2
112 39 18 -0.3256 14.942 8.22002 6.14701 # O_co2
113 39 17 0.6512 16.0426 8.15782 6.50816 # C_co2
114 39 18 -0.3256 17.1432 8.09561 6.86931 # O_co2
115 40 18 -0.3256 4.01548 26.2365 35.7469 # O_co2
116 40 17 0.6512 3.03748 25.6177 35.6676 # C_co2
117 40 18 -0.3256 2.05949 24.999 35.5883 # O_co2
118 41 18 -0.3256 33.5106 34.8901 12.3418 # O_co2
119 41 17 0.6512 34.6693 34.8865 12.2874 # C_co2
120 41 18 -0.3256 35.828 34.8829 12.2331 # O_co2
121 42 18 -0.3256 26.2918 17.5506 23.2025 # O_co2
122 42 17 0.6512 27.3406 17.1226 22.9529 # C_co2
123 42 18 -0.3256 28.3895 16.6946 22.7033 # O_co2
124 43 18 -0.3256 20.0004 18.7268 23.1302 # O_co2
125 43 17 0.6512 19.3322 17.7994 22.9328 # C_co2
126 43 18 -0.3256 18.6639 16.872 22.7354 # O_co2
127 44 18 -0.3256 17.731 26.9127 36.7325 # O_co2
128 44 17 0.6512 17.3614 26.3279 37.6636 # C_co2
129 44 18 -0.3256 16.9917 25.743 38.5947 # O_co2
130 45 18 -0.3256 10.981 12.4631 9.62937 # O_co2
131 45 17 0.6512 10.6693 11.8666 8.68456 # C_co2
132 45 18 -0.3256 10.3577 11.2701 7.73976 # O_co2
133 46 18 -0.3256 13.3863 26.8079 4.59756 # O_co2
134 46 17 0.6512 14.2896 27.1119 5.2589 # C_co2
135 46 18 -0.3256 15.1928 27.4159 5.92025 # O_co2
136 47 18 -0.3256 7.13268 33.2515 1.17232 # O_co2
137 47 17 0.6512 8.14275 33.8213 1.198 # C_co2
138 47 18 -0.3256 9.15282 34.3911 1.22368 # O_co2
139 48 18 -0.3256 3.23814 15.6692 18.9563 # O_co2
140 48 17 0.6512 3.62986 14.62 18.6539 # C_co2
141 48 18 -0.3256 4.02157 13.5709 18.3516 # O_co2
142 49 18 -0.3256 21.8023 34.9814 16.0669 # O_co2
143 49 17 0.6512 21.5474 33.9161 15.6852 # C_co2
144 49 18 -0.3256 21.2924 32.8507 15.3036 # O_co2
145 50 18 -0.3256 0.736277 1.72271 9.05137 # O_co2
146 50 17 0.6512 0.814204 0.891203 8.24631 # C_co2
147 50 18 -0.3256 0.892131 0.0596972 7.44124 # O_co2
148 51 18 -0.3256 30.5359 33.3368 19.2067 # O_co2
149 51 17 0.6512 31.598 33.473 18.7606 # C_co2
150 51 18 -0.3256 32.6601 33.6091 18.3145 # O_co2
151 52 18 -0.3256 5.45619 5.16288 11.6573 # O_co2
152 52 17 0.6512 5.59898 4.10803 12.1183 # C_co2
153 52 18 -0.3256 5.74177 3.05319 12.5793 # O_co2
154 53 18 -0.3256 21.4061 7.95078 21.9629 # O_co2
155 53 17 0.6512 20.3406 7.50447 21.8568 # C_co2
156 53 18 -0.3256 19.2752 7.05817 21.7507 # O_co2
157 54 18 -0.3256 0.623161 15.7407 1.242 # O_co2
158 54 17 0.6512 1.14608 16.0188 0.24458 # C_co2
159 54 18 -0.3256 1.66901 16.2968 -0.75284 # O_co2
160 55 18 -0.3256 32.4078 14.2106 11.7456 # O_co2
161 55 17 0.6512 32.3007 14.8916 12.6786 # C_co2
162 55 18 -0.3256 32.1936 15.5725 13.6115 # O_co2
163 56 18 -0.3256 15.3509 11.8607 36.2455 # O_co2
164 56 17 0.6512 15.5834 12.9882 36.1027 # C_co2
165 56 18 -0.3256 15.8159 14.1156 35.9599 # O_co2
166 57 18 -0.3256 7.55871 16.1549 16.4828 # O_co2
167 57 17 0.6512 6.90991 16.8658 17.1303 # C_co2
168 57 18 -0.3256 6.26111 17.5768 17.7777 # O_co2
169 58 18 -0.3256 16.8076 17.0779 8.56722 # O_co2
170 58 17 0.6512 17.3879 16.8518 7.58861 # C_co2
171 58 18 -0.3256 17.9682 16.6257 6.60999 # O_co2
172 59 18 -0.3256 35.5193 22.741 9.33566 # O_co2
173 59 17 0.6512 36.4788 22.9351 9.95806 # C_co2
174 59 18 -0.3256 37.4382 23.1292 10.5805 # O_co2
175 60 18 -0.3256 37.2331 20.9568 6.22148 # O_co2
176 60 17 0.6512 37.5007 20.6916 7.31857 # C_co2
177 60 18 -0.3256 37.7684 20.4263 8.41566 # O_co2
178 61 18 -0.3256 2.51553 28.1146 3.03179 # O_co2
179 61 17 0.6512 1.74085 28.8372 2.55919 # C_co2
180 61 18 -0.3256 0.966166 29.5598 2.08658 # O_co2
181 62 18 -0.3256 12.2564 7.40043 27.6137 # O_co2
182 62 17 0.6512 12.7309 6.75896 28.4557 # C_co2
183 62 18 -0.3256 13.2054 6.11749 29.2977 # O_co2
184 63 18 -0.3256 33.0644 13.3315 1.19804 # O_co2
185 63 17 0.6512 32.4411 13.2183 2.16983 # C_co2
186 63 18 -0.3256 31.8179 13.1052 3.14161 # O_co2
187 64 18 -0.3256 35.1413 16.6851 25.7725 # O_co2
188 64 17 0.6512 34.4529 16.1357 26.5273 # C_co2
189 64 18 -0.3256 33.7645 15.5863 27.2822 # O_co2
190 65 18 -0.3256 16.3345 3.13529 24.1808 # O_co2
191 65 17 0.6512 16.4645 4.25915 23.9245 # C_co2
192 65 18 -0.3256 16.5944 5.38301 23.6683 # O_co2
193 66 18 -0.3256 6.44305 23.086 37.2873 # O_co2
194 66 17 0.6512 6.8974 23.7583 36.4583 # C_co2
195 66 18 -0.3256 7.35175 24.4305 35.6294 # O_co2
196 67 18 -0.3256 3.86854 20.157 21.2113 # O_co2
197 67 17 0.6512 3.83618 20.3411 22.3561 # C_co2
198 67 18 -0.3256 3.80383 20.5252 23.501 # O_co2
199 68 18 -0.3256 20.9649 3.05942 30.6101 # O_co2
200 68 17 0.6512 21.2084 3.5791 29.602 # C_co2
201 68 18 -0.3256 21.4519 4.09878 28.5939 # O_co2
202 69 18 -0.3256 2.78247 16.2015 4.13192 # O_co2
203 69 17 0.6512 2.29072 17.0823 3.55927 # C_co2
204 69 18 -0.3256 1.79897 17.9632 2.98662 # O_co2
205 70 18 -0.3256 31.4217 27.8931 25.9913 # O_co2
206 70 17 0.6512 30.4515 28.3956 25.6016 # C_co2
207 70 18 -0.3256 29.4813 28.898 25.212 # O_co2
208 71 18 -0.3256 0.156291 21.171 35.0283 # O_co2
209 71 17 0.6512 1.12018 21.3659 34.413 # C_co2
210 71 18 -0.3256 2.08407 21.5608 33.7978 # O_co2
211 72 18 -0.3256 37.7689 15.2824 6.46372 # O_co2
212 72 17 0.6512 38.6029 14.5536 6.11898 # C_co2
213 72 18 -0.3256 39.4368 13.8248 5.77424 # O_co2
214 73 18 -0.3256 26.7321 14.3402 13.3482 # O_co2
215 73 17 0.6512 27.8041 14.2695 12.9108 # C_co2
216 73 18 -0.3256 28.8761 14.1987 12.4733 # O_co2
217 74 18 -0.3256 23.0642 12.1045 8.02406 # O_co2
218 74 17 0.6512 22.2902 12.1222 7.16022 # C_co2
219 74 18 -0.3256 21.5162 12.1399 6.29637 # O_co2
220 75 18 -0.3256 1.5102 17.9127 22.7006 # O_co2
221 75 17 0.6512 1.00502 17.6971 21.6789 # C_co2
222 75 18 -0.3256 0.499849 17.4816 20.6571 # O_co2
223 76 18 -0.3256 5.78732 21.1914 12.3702 # O_co2
224 76 17 0.6512 5.29961 20.6455 11.4703 # C_co2
225 76 18 -0.3256 4.81189 20.0996 10.5705 # O_co2
226 77 18 -0.3256 24.6142 18.7577 13.2409 # O_co2
227 77 17 0.6512 24.3809 17.8943 12.5023 # C_co2
228 77 18 -0.3256 24.1476 17.0308 11.7636 # O_co2
229 78 18 -0.3256 14.3488 11.3906 6.24151 # O_co2
230 78 17 0.6512 14.6772 12.4941 6.38267 # C_co2
231 78 18 -0.3256 15.0056 13.5976 6.52384 # O_co2
232 79 18 -0.3256 5.50121 33.604 18.5104 # O_co2
233 79 17 0.6512 6.18961 34.2661 19.1687 # C_co2
234 79 18 -0.3256 6.87801 34.9282 19.827 # O_co2
235 80 18 -0.3256 16.8356 11.9328 16.093 # O_co2
236 80 17 0.6512 17.2317 11.5107 15.0878 # C_co2
237 80 18 -0.3256 17.6278 11.0887 14.0825 # O_co2
238 81 18 -0.3256 34.2871 19.7135 3.49315 # O_co2
239 81 17 0.6512 35.2452 19.0945 3.28261 # C_co2
240 81 18 -0.3256 36.2033 18.4754 3.07208 # O_co2
241 82 18 -0.3256 22.4367 18.8132 35.9483 # O_co2
242 82 17 0.6512 21.6284 19.4288 36.5079 # C_co2
243 82 18 -0.3256 20.8201 20.0445 37.0675 # O_co2
244 83 18 -0.3256 29.9069 7.91989 17.5622 # O_co2
245 83 17 0.6512 30.8148 8.42957 17.0509 # C_co2
246 83 18 -0.3256 31.7228 8.93926 16.5395 # O_co2
247 84 18 -0.3256 18.7267 30.2199 23.3345 # O_co2
248 84 17 0.6512 18.4972 31.1637 22.7002 # C_co2
249 84 18 -0.3256 18.2678 32.1074 22.0658 # O_co2
250 85 18 -0.3256 30.4297 7.11996 14.1039 # O_co2
251 85 17 0.6512 30.9689 6.20687 13.6337 # C_co2
252 85 18 -0.3256 31.5082 5.29378 13.1634 # O_co2
253 86 18 -0.3256 1.94293 32.5226 14.3136 # O_co2
254 86 17 0.6512 2.96455 33.0558 14.4462 # C_co2
255 86 18 -0.3256 3.98617 33.589 14.5787 # O_co2
256 87 18 -0.3256 0.445367 19.0292 32.8532 # O_co2
257 87 17 0.6512 0.38335 19.9592 32.1627 # C_co2
258 87 18 -0.3256 0.321333 20.8893 31.4721 # O_co2
259 88 18 -0.3256 8.85141 18.3365 0.112987 # O_co2
260 88 17 0.6512 7.97041 17.6184 -0.11889 # C_co2
261 88 18 -0.3256 7.08941 16.9003 -0.350768 # O_co2
262 89 18 -0.3256 17.6279 20.1275 9.75873 # O_co2
263 89 17 0.6512 16.5008 20.1662 9.48739 # C_co2
264 89 18 -0.3256 15.3736 20.2049 9.21606 # O_co2
265 90 18 -0.3256 22.4583 32.9171 25.6508 # O_co2
266 90 17 0.6512 23.2415 32.6606 24.8344 # C_co2
267 90 18 -0.3256 24.0247 32.404 24.0181 # O_co2
268 91 18 -0.3256 37.3676 33.8584 8.02527 # O_co2
269 91 17 0.6512 36.3225 33.7314 8.51224 # C_co2
270 91 18 -0.3256 35.2773 33.6043 8.99921 # O_co2
271 92 18 -0.3256 35.4233 26.2557 38.3116 # O_co2
272 92 17 0.6512 35.5372 27.3509 37.9468 # C_co2
273 92 18 -0.3256 35.6511 28.4461 37.5819 # O_co2
274 93 18 -0.3256 33.0757 18.6481 7.68837 # O_co2
275 93 17 0.6512 32.9385 19.4842 6.89611 # C_co2
276 93 18 -0.3256 32.8013 20.3203 6.10385 # O_co2
277 94 18 -0.3256 25.2288 32.2195 28.9925 # O_co2
278 94 17 0.6512 26.055 32.2995 29.8028 # C_co2
279 94 18 -0.3256 26.8811 32.3794 30.6132 # O_co2
280 95 18 -0.3256 14.5979 0.0881974 2.11369 # O_co2
281 95 17 0.6512 13.7411 -0.692521 2.06782 # C_co2
282 95 18 -0.3256 12.8844 -1.47324 2.02196 # O_co2
283 96 18 -0.3256 16.1167 21.2412 35.3545 # O_co2
284 96 17 0.6512 15.7378 21.0049 34.2839 # C_co2
285 96 18 -0.3256 15.3589 20.7687 33.2133 # O_co2
286 97 18 -0.3256 22.6543 13.8963 22.191 # O_co2
287 97 17 0.6512 22.4713 13.5024 21.1154 # C_co2
288 97 18 -0.3256 22.2883 13.1086 20.0397 # O_co2
289 98 18 -0.3256 10.1289 18.021 24.722 # O_co2
290 98 17 0.6512 10.2549 17.3746 23.7671 # C_co2
291 98 18 -0.3256 10.3809 16.7281 22.8122 # O_co2
292 99 18 -0.3256 9.16986 37.7633 33.5219 # O_co2
293 99 17 0.6512 9.98224 38.5904 33.5609 # C_co2
294 99 18 -0.3256 10.7946 39.4175 33.5999 # O_co2
295 100 18 -0.3256 0.265219 25.0895 24.4165 # O_co2
296 100 17 0.6512 0.0140689 23.9857 24.6699 # C_co2
297 100 18 -0.3256 -0.237081 22.8819 24.9233 # O_co2
298 101 18 -0.3256 30.2812 18.549 8.2732 # O_co2
299 101 17 0.6512 30.5498 17.717 9.03557 # C_co2
300 101 18 -0.3256 30.8183 16.885 9.79794 # O_co2
301 102 18 -0.3256 21.6663 19.266 14.1017 # O_co2
302 102 17 0.6512 20.881 20.075 13.829 # C_co2
303 102 18 -0.3256 20.0958 20.8841 13.5562 # O_co2
304 103 18 -0.3256 6.83231 25.3868 3.46953 # O_co2
305 103 17 0.6512 6.45918 24.3093 3.68262 # C_co2
306 103 18 -0.3256 6.08604 23.2318 3.89571 # O_co2
307 104 18 -0.3256 34.2905 24.3369 26.7442 # O_co2
308 104 17 0.6512 34.6488 25.347 27.188 # C_co2
309 104 18 -0.3256 35.007 26.3571 27.6318 # O_co2
310 105 18 -0.3256 4.65371 0.901008 3.62229 # O_co2
311 105 17 0.6512 4.83868 -0.202698 3.31696 # C_co2
312 105 18 -0.3256 5.02364 -1.3064 3.01164 # O_co2
313 106 18 -0.3256 32.896 18.8689 36.026 # O_co2
314 106 17 0.6512 32.3156 19.873 36.0492 # C_co2
315 106 18 -0.3256 31.7352 20.877 36.0725 # O_co2
316 107 18 -0.3256 5.83308 31.5797 13.5689 # O_co2
317 107 17 0.6512 5.41312 32.1308 12.6386 # C_co2
318 107 18 -0.3256 4.99317 32.6819 11.7083 # O_co2
319 108 18 -0.3256 35.8619 16.0106 18.3546 # O_co2
320 108 17 0.6512 36.5844 15.1116 18.2301 # C_co2
321 108 18 -0.3256 37.3069 14.2126 18.1057 # O_co2
322 109 18 -0.3256 8.39079 35.2191 14.7437 # O_co2
323 109 17 0.6512 7.86467 34.3957 15.3688 # C_co2
324 109 18 -0.3256 7.33854 33.5723 15.994 # O_co2
325 110 18 -0.3256 24.0233 30.8971 4.12925 # O_co2
326 110 17 0.6512 23.7136 31.5721 3.23811 # C_co2
327 110 18 -0.3256 23.404 32.247 2.34696 # O_co2
328 111 18 -0.3256 17.6609 18.38 26.6845 # O_co2
329 111 17 0.6512 16.6992 17.8156 26.3645 # C_co2
330 111 18 -0.3256 15.7376 17.2513 26.0444 # O_co2
331 112 18 -0.3256 32.8518 3.4822 21.7352 # O_co2
332 112 17 0.6512 32.193 4.38027 22.0594 # C_co2
333 112 18 -0.3256 31.5343 5.27834 22.3836 # O_co2
334 113 18 -0.3256 5.23277 14.8903 24.1107 # O_co2
335 113 17 0.6512 4.96654 15.6388 23.2654 # C_co2
336 113 18 -0.3256 4.7003 16.3873 22.4201 # O_co2
337 114 18 -0.3256 37.2001 7.02529 12.9779 # O_co2
338 114 17 0.6512 37.4183 7.67429 13.9143 # C_co2
339 114 18 -0.3256 37.6364 8.32329 14.8507 # O_co2
340 115 18 -0.3256 0.241807 26.5933 13.692 # O_co2
341 115 17 0.6512 0.744192 27.6385 13.7194 # C_co2
342 115 18 -0.3256 1.24658 28.6837 13.7468 # O_co2
343 116 18 -0.3256 2.47358 30.2025 11.16 # O_co2
344 116 17 0.6512 3.20751 29.6921 11.8993 # C_co2
345 116 18 -0.3256 3.94144 29.1816 12.6385 # O_co2
346 117 18 -0.3256 27.7892 13.9548 22.1358 # O_co2
347 117 17 0.6512 26.936 14.4715 21.5437 # C_co2
348 117 18 -0.3256 26.0828 14.9882 20.9515 # O_co2
349 118 18 -0.3256 32.1288 10.938 8.34598 # O_co2
350 118 17 0.6512 33.0636 11.5256 7.99017 # C_co2
351 118 18 -0.3256 33.9983 12.1132 7.63436 # O_co2
352 119 18 -0.3256 31.8848 32.971 34.9096 # O_co2
353 119 17 0.6512 30.8704 32.9293 35.4708 # C_co2
354 119 18 -0.3256 29.856 32.8877 36.0319 # O_co2
355 120 18 -0.3256 10.2211 21.771 18.6082 # O_co2
356 120 17 0.6512 9.52319 22.4703 19.2161 # C_co2
357 120 18 -0.3256 8.82531 23.1696 19.824 # O_co2
358 121 18 -0.3256 11.8699 30.6267 4.74723 # O_co2
359 121 17 0.6512 11.3882 31.682 4.74963 # C_co2
360 121 18 -0.3256 10.9065 32.7372 4.75202 # O_co2
361 122 18 -0.3256 22.404 15.1589 5.49331 # O_co2
362 122 17 0.6512 21.2829 15.2609 5.21365 # C_co2
363 122 18 -0.3256 20.1617 15.3628 4.93398 # O_co2
364 123 18 -0.3256 38.023 3.26314 27.007 # O_co2
365 123 17 0.6512 37.8307 3.56802 25.9044 # C_co2
366 123 18 -0.3256 37.6383 3.87289 24.8018 # O_co2
367 124 18 -0.3256 36.9217 30.588 36.3215 # O_co2
368 124 17 0.6512 36.8689 29.7983 35.4735 # C_co2
369 124 18 -0.3256 36.816 29.0086 34.6255 # O_co2
370 125 18 -0.3256 11.6061 31.4144 23.7356 # O_co2
371 125 17 0.6512 10.448 31.3627 23.6933 # C_co2
372 125 18 -0.3256 9.28991 31.311 23.6511 # O_co2
373 126 18 -0.3256 30.2576 14.1097 20.1775 # O_co2
374 126 17 0.6512 30.8804 13.3344 19.5803 # C_co2
375 126 18 -0.3256 31.5032 12.5591 18.9832 # O_co2
376 127 18 -0.3256 35.177 13.3953 29.1098 # O_co2
377 127 17 0.6512 34.6171 13.9926 29.9317 # C_co2
378 127 18 -0.3256 34.0573 14.5899 30.7535 # O_co2
379 128 18 -0.3256 2.5562 15.0589 15.0646 # O_co2
380 128 17 0.6512 1.8593 14.5626 14.2813 # C_co2
381 128 18 -0.3256 1.1624 14.0663 13.4979 # O_co2
382 129 18 -0.3256 23.93 34.3734 20.8541 # O_co2
383 129 17 0.6512 23.6707 33.2429 20.8357 # C_co2
384 129 18 -0.3256 23.4115 32.1124 20.8173 # O_co2
385 130 18 -0.3256 12.3947 13.7926 37.8068 # O_co2
386 130 17 0.6512 11.3813 13.9024 38.3604 # C_co2
387 130 18 -0.3256 10.3678 14.0122 38.914 # O_co2
388 131 18 -0.3256 28.9437 9.16088 20.6519 # O_co2
389 131 17 0.6512 27.8442 8.79112 20.6425 # C_co2
390 131 18 -0.3256 26.7448 8.42136 20.6332 # O_co2
391 132 18 -0.3256 8.27222 33.7702 26.5759 # O_co2
392 132 17 0.6512 8.12459 34.5212 25.7042 # C_co2
393 132 18 -0.3256 7.97695 35.2722 24.8326 # O_co2
394 133 18 -0.3256 23.0663 13.5571 14.2209 # O_co2
395 133 17 0.6512 22.1642 12.8629 14.4446 # C_co2
396 133 18 -0.3256 21.2621 12.1688 14.6683 # O_co2
397 134 18 -0.3256 13.631 16.1867 22.8721 # O_co2
398 134 17 0.6512 13.2136 15.8302 21.8502 # C_co2
399 134 18 -0.3256 12.7961 15.4738 20.8283 # O_co2
400 135 18 -0.3256 3.18622 0.98123 18.6868 # O_co2
401 135 17 0.6512 3.64857 -0.0781627 18.5892 # C_co2
402 135 18 -0.3256 4.11091 -1.13756 18.4916 # O_co2
403 136 18 -0.3256 28.2728 13.7841 17.8561 # O_co2
404 136 17 0.6512 27.6409 14.4359 17.134 # C_co2
405 136 18 -0.3256 27.009 15.0878 16.4119 # O_co2
406 137 18 -0.3256 9.31143 30.3536 30.184 # O_co2
407 137 17 0.6512 8.21318 29.9957 30.0775 # C_co2
408 137 18 -0.3256 7.11492 29.6378 29.9711 # O_co2
409 138 18 -0.3256 20.7464 10.4092 31.4537 # O_co2
410 138 17 0.6512 21.1737 10.0909 30.4232 # C_co2
411 138 18 -0.3256 21.6009 9.77259 29.3928 # O_co2
412 139 18 -0.3256 26.6248 24.8229 33.884 # O_co2
413 139 17 0.6512 26.9444 24.0007 33.1307 # C_co2
414 139 18 -0.3256 27.2639 23.1785 32.3774 # O_co2
415 140 18 -0.3256 25.3399 1.86695 0.340639 # O_co2
416 140 17 0.6512 24.6411 2.08028 -0.560338 # C_co2
417 140 18 -0.3256 23.9423 2.29362 -1.46132 # O_co2
418 141 18 -0.3256 1.38004 2.50462 13.0114 # O_co2
419 141 17 0.6512 1.9664 3.26323 12.3585 # C_co2
420 141 18 -0.3256 2.55275 4.02183 11.7056 # O_co2
421 142 18 -0.3256 23.4957 9.75956 5.77037 # O_co2
422 142 17 0.6512 23.9158 10.5742 5.05942 # C_co2
423 142 18 -0.3256 24.336 11.3888 4.34847 # O_co2
424 143 18 -0.3256 18.3989 14.5553 15.3395 # O_co2
425 143 17 0.6512 17.8262 15.387 14.7686 # C_co2
426 143 18 -0.3256 17.2535 16.2186 14.1976 # O_co2
427 144 18 -0.3256 3.09711 13.2884 27.8954 # O_co2
428 144 17 0.6512 3.2075 12.7572 28.9207 # C_co2
429 144 18 -0.3256 3.3179 12.226 29.946 # O_co2
430 145 18 -0.3256 20.832 15.7272 36.102 # O_co2
431 145 17 0.6512 19.8648 15.3151 36.5922 # C_co2
432 145 18 -0.3256 18.8976 14.903 37.0824 # O_co2
433 146 18 -0.3256 9.73976 14.8318 13.294 # O_co2
434 146 17 0.6512 9.34633 13.7417 13.2457 # C_co2
435 146 18 -0.3256 8.95291 12.6515 13.1974 # O_co2
436 147 18 -0.3256 0.0715232 23.063 21.3477 # O_co2
437 147 17 0.6512 0.35934 21.9509 21.5092 # C_co2
438 147 18 -0.3256 0.647157 20.8388 21.6707 # O_co2
439 148 18 -0.3256 3.99391 3.54287 21.8029 # O_co2
440 148 17 0.6512 2.86306 3.28807 21.7598 # C_co2
441 148 18 -0.3256 1.73221 3.03326 21.7167 # O_co2
442 149 18 -0.3256 37.7499 9.4878 5.9137 # O_co2
443 149 17 0.6512 37.8685 9.7021 4.77985 # C_co2
444 149 18 -0.3256 37.9872 9.9164 3.64601 # O_co2
445 150 18 -0.3256 20.2482 31.7081 30.2481 # O_co2
446 150 17 0.6512 20.6047 31.0641 31.1447 # C_co2
447 150 18 -0.3256 20.9612 30.4201 32.0412 # O_co2
448 151 18 -0.3256 5.80735 27.8673 38.1623 # O_co2
449 151 17 0.6512 5.04251 27.2718 38.7994 # C_co2
450 151 18 -0.3256 4.27767 26.6763 39.4366 # O_co2
451 152 18 -0.3256 24.9152 11.7673 21.1376 # O_co2
452 152 17 0.6512 25.67 12.1526 20.3455 # C_co2
453 152 18 -0.3256 26.4247 12.5379 19.5534 # O_co2
454 153 18 -0.3256 8.45985 2.06574 31.1002 # O_co2
455 153 17 0.6512 7.40036 2.42044 31.4121 # C_co2
456 153 18 -0.3256 6.34086 2.77514 31.724 # O_co2
457 154 18 -0.3256 4.29137 15.3403 35.8024 # O_co2
458 154 17 0.6512 4.79192 14.3276 35.539 # C_co2
459 154 18 -0.3256 5.29246 13.3148 35.2756 # O_co2
460 155 18 -0.3256 10.8188 5.45482 33.8828 # O_co2
461 155 17 0.6512 11.8645 5.51744 33.3846 # C_co2
462 155 18 -0.3256 12.9101 5.58006 32.8863 # O_co2
463 156 18 -0.3256 17.4417 2.87323 20.5141 # O_co2
464 156 17 0.6512 16.4009 2.37095 20.6145 # C_co2
465 156 18 -0.3256 15.3601 1.86867 20.7149 # O_co2
466 157 18 -0.3256 31.8911 13.0232 29.151 # O_co2
467 157 17 0.6512 32.5475 12.1352 28.7956 # C_co2
468 157 18 -0.3256 33.2038 11.2472 28.4403 # O_co2
469 158 18 -0.3256 34.6996 32.4869 6.38201 # O_co2
470 158 17 0.6512 35.7405 31.9756 6.4093 # C_co2
471 158 18 -0.3256 36.7814 31.4643 6.4366 # O_co2
472 159 18 -0.3256 4.93926 36.9419 26.5291 # O_co2
473 159 17 0.6512 5.70116 37.0962 27.3901 # C_co2
474 159 18 -0.3256 6.46306 37.2504 28.2511 # O_co2
475 160 18 -0.3256 29.2387 24.9098 23.8453 # O_co2
476 160 17 0.6512 28.5313 25.7874 23.5713 # C_co2
477 160 18 -0.3256 27.8239 26.6649 23.2974 # O_co2
478 161 18 -0.3256 7.84621 38.0632 15.9192 # O_co2
479 161 17 0.6512 7.60146 39.1501 16.2424 # C_co2
480 161 18 -0.3256 7.35672 40.2369 16.5656 # O_co2
481 162 18 -0.3256 26.0999 0.641458 8.23242 # O_co2
482 162 17 0.6512 26.5415 -0.222026 8.86881 # C_co2
483 162 18 -0.3256 26.9831 -1.08551 9.5052 # O_co2
484 163 18 -0.3256 33.9993 14.6334 16.1872 # O_co2
485 163 17 0.6512 33.7739 13.5076 16.3525 # C_co2
486 163 18 -0.3256 33.5484 12.3818 16.5177 # O_co2
487 164 18 -0.3256 5.40009 6.75756 26.8104 # O_co2
488 164 17 0.6512 4.57514 6.8645 27.6189 # C_co2
489 164 18 -0.3256 3.75018 6.97143 28.4273 # O_co2
490 165 18 -0.3256 22.1548 36.7932 9.05815 # O_co2
491 165 17 0.6512 21.679 36.958 8.01313 # C_co2
492 165 18 -0.3256 21.2032 37.1228 6.9681 # O_co2
493 166 18 -0.3256 8.47115 11.1205 16.2151 # O_co2
494 166 17 0.6512 7.73206 11.9908 16.42 # C_co2
495 166 18 -0.3256 6.99296 12.8611 16.6248 # O_co2
496 167 18 -0.3256 9.22512 17.3629 10.7569 # O_co2
497 167 17 0.6512 8.55977 16.4143 10.812 # C_co2
498 167 18 -0.3256 7.89442 15.4657 10.8672 # O_co2
499 168 18 -0.3256 26.0396 13.282 -1.7388 # O_co2
500 168 17 0.6512 26.8202 12.7353 -1.0774 # C_co2
501 168 18 -0.3256 27.6008 12.1887 -0.416001 # O_co2
502 169 18 -0.3256 12.5655 35.7664 15.7411 # O_co2
503 169 17 0.6512 11.8937 35.3242 14.9051 # C_co2
504 169 18 -0.3256 11.222 34.882 14.0692 # O_co2
505 170 18 -0.3256 17.8385 34.2311 36.9365 # O_co2
506 170 17 0.6512 17.6767 34.1409 38.0816 # C_co2
507 170 18 -0.3256 17.515 34.0506 39.2268 # O_co2
508 171 18 -0.3256 23.0589 10.6216 12.6288 # O_co2
509 171 17 0.6512 22.0701 11.0764 12.2274 # C_co2
510 171 18 -0.3256 21.0813 11.5312 11.826 # O_co2
511 172 18 -0.3256 1.8953 9.71646 34.7475 # O_co2
512 172 17 0.6512 2.05374 9.0416 33.8175 # C_co2
513 172 18 -0.3256 2.21218 8.36673 32.8874 # O_co2
514 173 18 -0.3256 24.1705 5.26774 29.5597 # O_co2
515 173 17 0.6512 25.1789 5.6791 29.1603 # C_co2
516 173 18 -0.3256 26.1873 6.09046 28.7609 # O_co2
517 174 18 -0.3256 20.292 25.3055 4.01117 # O_co2
518 174 17 0.6512 19.2382 24.8345 3.89614 # C_co2
519 174 18 -0.3256 18.1844 24.3635 3.78112 # O_co2
520 175 18 -0.3256 9.3577 0.776778 13.1449 # O_co2
521 175 17 0.6512 9.60282 1.69651 13.808 # C_co2
522 175 18 -0.3256 9.84793 2.61625 14.471 # O_co2
523 176 18 -0.3256 14.3184 32.9002 11.5952 # O_co2
524 176 17 0.6512 15.0564 32.0074 11.6582 # C_co2
525 176 18 -0.3256 15.7944 31.1147 11.7212 # O_co2
526 177 18 -0.3256 8.62218 28.5317 18.0781 # O_co2
527 177 17 0.6512 8.67802 29.1105 19.0819 # C_co2
528 177 18 -0.3256 8.73386 29.6893 20.0856 # O_co2
529 178 18 -0.3256 9.53372 24.1097 29.9365 # O_co2
530 178 17 0.6512 9.91073 23.0605 29.616 # C_co2
531 178 18 -0.3256 10.2877 22.0114 29.2955 # O_co2
532 179 18 -0.3256 22.957 30.1797 27.4042 # O_co2
533 179 17 0.6512 22.9327 29.0239 27.308 # C_co2
534 179 18 -0.3256 22.9085 27.8682 27.2118 # O_co2
535 180 18 -0.3256 19.976 28.4511 26.1844 # O_co2
536 180 17 0.6512 20.018 29.601 26.3307 # C_co2
537 180 18 -0.3256 20.0601 30.751 26.477 # O_co2
538 181 18 -0.3256 27.8809 7.21938 5.60957 # O_co2
539 181 17 0.6512 28.1777 8.1488 6.237 # C_co2
540 181 18 -0.3256 28.4745 9.07822 6.86443 # O_co2
541 182 18 -0.3256 9.81574 8.01307 32.5939 # O_co2
542 182 17 0.6512 8.69158 8.12808 32.332 # C_co2
543 182 18 -0.3256 7.56742 8.2431 32.07 # O_co2
544 183 18 -0.3256 37.9891 11.9029 29.8788 # O_co2
545 183 17 0.6512 38.2041 12.4355 28.8709 # C_co2
546 183 18 -0.3256 38.419 12.9682 27.8631 # O_co2
547 184 18 -0.3256 19.8616 22.5781 10.4154 # O_co2
548 184 17 0.6512 20.9409 22.2502 10.6859 # C_co2
549 184 18 -0.3256 22.0203 21.9223 10.9564 # O_co2
550 185 18 -0.3256 20.351 18.9099 10.6461 # O_co2
551 185 17 0.6512 20.8858 18.1786 9.92168 # C_co2
552 185 18 -0.3256 21.4207 17.4473 9.19724 # O_co2
553 186 18 -0.3256 3.97134 26.7372 32.8279 # O_co2
554 186 17 0.6512 2.81439 26.658 32.7995 # C_co2
555 186 18 -0.3256 1.65745 26.5788 32.7711 # O_co2
556 187 18 -0.3256 26.0132 29.8858 24.4368 # O_co2
557 187 17 0.6512 25.9142 29.7414 25.5835 # C_co2
558 187 18 -0.3256 25.8152 29.5971 26.7302 # O_co2
559 188 18 -0.3256 36.5318 15.5265 21.6155 # O_co2
560 188 17 0.6512 36.6311 14.9389 22.6107 # C_co2
561 188 18 -0.3256 36.7304 14.3513 23.6059 # O_co2
562 189 18 -0.3256 34.1171 30.0598 2.07978 # O_co2
563 189 17 0.6512 35.1992 30.2654 1.71592 # C_co2
564 189 18 -0.3256 36.2813 30.4709 1.35206 # O_co2
565 190 18 -0.3256 37.9766 37.4735 18.0167 # O_co2
566 190 17 0.6512 37.9506 38.4198 17.3462 # C_co2
567 190 18 -0.3256 37.9245 39.366 16.6758 # O_co2
568 191 18 -0.3256 28.8191 1.77654 14.7221 # O_co2
569 191 17 0.6512 29.2901 2.27464 13.7863 # C_co2
570 191 18 -0.3256 29.7611 2.77273 12.8506 # O_co2
571 192 18 -0.3256 6.77062 12.0145 32.7194 # O_co2
572 192 17 0.6512 6.82786 13.1727 32.7491 # C_co2
573 192 18 -0.3256 6.88509 14.3309 32.7788 # O_co2
574 193 18 -0.3256 23.6226 15.8717 36.6715 # O_co2
575 193 17 0.6512 23.3695 15.39 37.6959 # C_co2
576 193 18 -0.3256 23.1163 14.9082 38.7203 # O_co2
577 194 18 -0.3256 29.7985 19.0556 31.2783 # O_co2
578 194 17 0.6512 29.4592 18.0475 30.8152 # C_co2
579 194 18 -0.3256 29.12 17.0395 30.3522 # O_co2
580 195 18 -0.3256 37.1563 18.3686 37.3403 # O_co2
581 195 17 0.6512 36.8317 17.7496 36.4145 # C_co2
582 195 18 -0.3256 36.5072 17.1307 35.4887 # O_co2
583 196 18 -0.3256 14.0899 35.4922 6.62443 # O_co2
584 196 17 0.6512 14.1887 34.9189 7.628 # C_co2
585 196 18 -0.3256 14.2875 34.3456 8.63158 # O_co2