# LAMMPS data file written by WriteLammpsdata function in RASPA(written by Zhao Li)
1217 atoms
0 bonds
0 angles
0 dihedrals
0 impropers
0 48.3033 xlo xhi
0 41.8319 ylo yhi
0 39.4395 zlo zhi
24.1517 24.1517 13.944 xy xz yz

21 atom types
0 bond types
0 angle types
0 dihedral types
0 improper types

Masses

1 0 # C
2 0 # H
3 0 # N
4 0 # O
5 0 # Zn
6 0 # Cu
7 0 # P
8 0 # Ni
9 0 # Ht
10 0 # OT
11 0 # Op
12 0 # Ow
13 0 # Hw
14 0 # Lw
15 0 # Zr
16 0 # Cl
17 0 # Si
18 0 # CH4_sp3
19 0 # C_co2
20 0 # O_co2
21 0 # Ar

Pair Coeffs

1 0.104809 3.43 # C
2 0.0439235 2.57 # H
3 0.0688809 3.26 # N
4 0.0598938 3.12 # O
5 0.123775 2.46 # Zn
6 0.00499942 3.11 # Cu
7 0.304449 3.69 # P
8 0.0149784 2.52 # Ni
9 0 0 # Ht
10 0.184502 3.02 # OT
11 0.154744 3.154 # Op
12 0.154744 3.154 # Ow
13 0 0 # Hw
14 0 0 # Lw
15 0.0688851 2.78317 # Zr
16 0.0998719 4.3 # Cl
17 0.0436457 2.3 # Si
18 0.293617 3.73 # CH4_sp3
19 0.059384 2.745 # C_co2
20 0.169962 3.017 # O_co2
21 0.228148 3.407 # Ar

Atoms

1 1 6 0 48.3033 14.7047 38.3636 # Cu
2 1 6 0 25.4694 27.8879 19.7197 # Cu
3 1 6 0 71.1372 27.8879 19.7197 # Cu
4 1 6 0 48.3033 41.0711 1.07591 # Cu
5 1 6 0 59.7203 47.6627 19.7197 # Cu
6 1 6 0 36.8863 34.4795 38.3636 # Cu
7 1 6 0 59.7203 21.2963 1.07591 # Cu
8 1 6 0 36.8863 8.11315 19.7197 # Cu
9 1 6 0 36.8863 21.2963 1.07591 # Cu
10 1 6 0 36.8863 47.6627 19.7197 # Cu
11 1 6 0 59.7203 8.11315 19.7197 # Cu
12 1 6 0 59.7203 34.4795 38.3636 # Cu
13 1 2 0 31.1508 7.89507 3.08022 # H
14 1 2 0 29.6534 6.3947 2.0193 # H
15 1 2 0 28.639 5.07839 1.0767 # H
16 1 2 0 27.016 3.66168 0.074935 # H
17 1 2 0 26.1949 25.2135 9.25645 # H
18 1 2 0 26.1949 25.8493 11.54 # H
19 1 2 0 26.2045 26.5856 13.3029 # H
20 1 2 0 26.2045 27.0652 15.6299 # H
21 1 2 0 22.1084 17.1316 20.686 # H
22 1 2 0 22.1084 19.4964 20.5243 # H
23 1 2 0 22.0988 21.404 20.6308 # H
24 1 2 0 22.0988 23.7577 20.3074 # H
25 1 2 0 17.1525 5.53575 6.4168 # H
26 1 2 0 18.6499 4.03538 5.35588 # H
27 1 2 0 19.6643 2.70792 4.42905 # H
28 1 2 0 21.2873 1.29121 3.42729 # H
29 1 2 0 32.8897 6.53972 9.25645 # H
30 1 2 0 33.4404 6.2218 11.54 # H
31 1 2 0 34.0731 5.84531 13.3029 # H
32 1 2 0 34.4886 5.60547 15.6299 # H
33 1 2 0 15.4136 10.907 3.08022 # H
34 1 2 0 14.8629 12.9539 2.0193 # H
35 1 2 0 14.2302 14.4906 1.0767 # H
36 1 2 0 13.8147 16.6045 0.074935 # H
37 1 2 0 20.3695 24.2095 6.4168 # H
38 1 2 0 18.3214 23.6629 5.35588 # H
39 1 2 0 16.6646 23.4482 4.42905 # H
40 1 2 0 14.6262 22.751 3.42729 # H
41 1 2 0 27.9338 14.1197 20.686 # H
42 1 2 0 29.9819 12.9372 20.5243 # H
43 1 2 0 31.6387 11.9918 20.6308 # H
44 1 2 0 33.6771 10.8149 20.3074 # H
45 1 2 0 34.9329 12.0866 6.4168 # H
46 1 2 0 35.4836 14.1336 5.35588 # H
47 1 2 0 36.126 15.6758 4.42905 # H
48 1 2 0 36.5414 17.7897 3.42729 # H
49 1 2 0 22.4127 10.5807 20.686 # H
50 1 2 0 20.3647 9.39823 20.5243 # H
51 1 2 0 18.7175 8.4361 20.6308 # H
52 1 2 0 16.6791 7.25923 20.3074 # H
53 1 2 0 13.3704 10.0787 9.25645 # H
54 1 2 0 12.8197 9.76077 11.54 # H
55 1 2 0 12.1773 9.40102 13.3029 # H
56 1 2 0 11.7619 9.16118 15.6299 # H
57 1 2 0 25.8906 23.0298 3.08022 # H
58 1 2 0 27.9386 22.4832 2.0193 # H
59 1 2 0 29.5858 22.2629 1.0767 # H
60 1 2 0 31.6242 21.5657 0.074935 # H
61 1 2 0 74.1939 32.746 36.3593 # H
62 1 2 0 76.2419 33.2926 37.4202 # H
63 1 2 0 77.8891 33.5129 38.3628 # H
64 1 2 0 79.9275 34.2101 39.3645 # H
65 1 2 0 61.6737 45.6972 30.183 # H
66 1 2 0 61.123 46.0151 27.8995 # H
67 1 2 0 60.4806 46.3748 26.1365 # H
68 1 2 0 60.0652 46.6147 23.8096 # H
69 1 2 0 70.716 45.1952 18.7535 # H
70 1 2 0 68.668 46.3776 18.9152 # H
71 1 2 0 67.0208 47.3397 18.8087 # H
72 1 2 0 64.9824 48.5166 19.1321 # H
73 1 2 0 83.2362 43.6892 33.0227 # H
74 1 2 0 83.7869 41.6422 34.0836 # H
75 1 2 0 84.4293 40.1 35.0104 # H
76 1 2 0 84.8447 37.9861 36.0122 # H
77 1 2 0 74.4982 30.5624 30.183 # H
78 1 2 0 74.4982 29.9265 27.8995 # H
79 1 2 0 74.5078 29.1903 26.1365 # H
80 1 2 0 74.5078 28.7106 23.8096 # H
81 1 2 0 79.4541 47.8808 36.3593 # H
82 1 2 0 77.9567 49.3811 37.4202 # H
83 1 2 0 76.9423 50.6975 38.3628 # H
84 1 2 0 75.3193 52.1142 39.3645 # H
85 1 2 0 65.4558 50.2401 33.0227 # H
86 1 2 0 66.9532 51.7405 34.0836 # H
87 1 2 0 67.9676 53.0679 35.0104 # H
88 1 2 0 69.5906 54.4846 36.0122 # H
89 1 2 0 70.4117 38.6443 18.7535 # H
90 1 2 0 70.4117 36.2794 18.9152 # H
91 1 2 0 70.4021 34.3719 18.8087 # H
92 1 2 0 70.4021 32.0181 19.1321 # H
93 1 2 0 68.6728 31.5663 33.0227 # H
94 1 2 0 66.6247 32.1129 34.0836 # H
95 1 2 0 64.9679 32.3277 35.0104 # H
96 1 2 0 62.9295 33.0249 36.0122 # H
97 1 2 0 76.2371 41.6562 18.7535 # H
98 1 2 0 78.2852 42.8386 18.9152 # H
99 1 2 0 79.942 43.784 18.8087 # H
100 1 2 0 81.9804 44.9609 19.1321 # H
101 1 2 0 81.193 49.2361 30.183 # H
102 1 2 0 81.7437 49.5541 27.8995 # H
103 1 2 0 82.3764 49.9305 26.1365 # H
104 1 2 0 82.7919 50.1704 23.8096 # H
105 1 2 0 63.7169 44.8689 36.3593 # H
106 1 2 0 63.1662 42.8219 37.4202 # H
107 1 2 0 62.5335 41.2853 38.3628 # H
108 1 2 0 62.118 39.1714 39.3645 # H
109 1 2 0 65.4558 47.8808 36.3593 # H
110 1 2 0 66.9532 49.3811 37.4202 # H
111 1 2 0 67.9676 50.6975 38.3628 # H
112 1 2 0 69.5906 52.1142 39.3645 # H
113 1 2 0 70.4117 30.5624 30.183 # H
114 1 2 0 70.4117 29.9265 27.8995 # H
115 1 2 0 70.4021 29.1903 26.1365 # H
116 1 2 0 70.4021 28.7106 23.8096 # H
117 1 2 0 74.4982 38.6443 18.7535 # H
118 1 2 0 74.4982 36.2794 18.9152 # H
119 1 2 0 74.5078 34.3719 18.8087 # H
120 1 2 0 74.5078 32.0181 19.1321 # H
121 1 2 0 79.4541 50.2401 33.0227 # H
122 1 2 0 77.9567 51.7405 34.0836 # H
123 1 2 0 76.9423 53.0679 35.0104 # H
124 1 2 0 75.3193 54.4846 36.0122 # H
125 1 2 0 63.7169 49.2361 30.183 # H
126 1 2 0 63.1662 49.5541 27.8995 # H
127 1 2 0 62.5335 49.9305 26.1365 # H
128 1 2 0 62.118 50.1704 23.8096 # H
129 1 2 0 81.193 44.8689 36.3593 # H
130 1 2 0 81.7437 42.8219 37.4202 # H
131 1 2 0 82.3764 41.2853 38.3628 # H
132 1 2 0 82.7919 39.1714 39.3645 # H
133 1 2 0 76.2371 31.5663 33.0227 # H
134 1 2 0 78.2852 32.1129 34.0836 # H
135 1 2 0 79.942 32.3277 35.0104 # H
136 1 2 0 81.9804 33.0249 36.0122 # H
137 1 2 0 68.6728 41.6562 18.7535 # H
138 1 2 0 66.6247 42.8386 18.9152 # H
139 1 2 0 64.9679 43.784 18.8087 # H
140 1 2 0 62.9295 44.9609 19.1321 # H
141 1 2 0 61.6737 43.6892 33.0227 # H
142 1 2 0 61.123 41.6422 34.0836 # H
143 1 2 0 60.4806 40.1 35.0104 # H
144 1 2 0 60.0652 37.9861 36.0122 # H
145 1 2 0 74.1939 45.1952 18.7535 # H
146 1 2 0 76.2419 46.3776 18.9152 # H
147 1 2 0 77.8891 47.3397 18.8087 # H
148 1 2 0 79.9275 48.5166 19.1321 # H
149 1 2 0 83.2362 45.6972 30.183 # H
150 1 2 0 83.7869 46.0151 27.8995 # H
151 1 2 0 84.4293 46.3748 26.1365 # H
152 1 2 0 84.8447 46.6147 23.8096 # H
153 1 2 0 70.716 32.746 36.3593 # H
154 1 2 0 68.668 33.2926 37.4202 # H
155 1 2 0 67.0208 33.5129 38.3628 # H
156 1 2 0 64.9824 34.2101 39.3645 # H
157 1 2 0 22.4127 23.0298 3.08022 # H
158 1 2 0 20.3647 22.4832 2.0193 # H
159 1 2 0 18.7175 22.2629 1.0767 # H
160 1 2 0 16.6791 21.5657 0.074935 # H
161 1 2 0 34.9329 10.0787 9.25645 # H
162 1 2 0 35.4836 9.76077 11.54 # H
163 1 2 0 36.126 9.40102 13.3029 # H
164 1 2 0 36.5414 9.16118 15.6299 # H
165 1 2 0 25.8906 10.5807 20.686 # H
166 1 2 0 27.9386 9.39823 20.5243 # H
167 1 2 0 29.5858 8.4361 20.6308 # H
168 1 2 0 31.6242 7.25923 20.3074 # H
169 1 2 0 13.3704 12.0866 6.4168 # H
170 1 2 0 12.8197 14.1336 5.35588 # H
171 1 2 0 12.1773 15.6758 4.42905 # H
172 1 2 0 11.7619 17.7897 3.42729 # H
173 1 2 0 22.1084 25.2135 9.25645 # H
174 1 2 0 22.1084 25.8493 11.54 # H
175 1 2 0 22.0988 26.5856 13.3029 # H
176 1 2 0 22.0988 27.0652 15.6299 # H
177 1 2 0 17.1525 7.89507 3.08022 # H
178 1 2 0 18.6499 6.3947 2.0193 # H
179 1 2 0 19.6643 5.07839 1.0767 # H
180 1 2 0 21.2873 3.66168 0.074935 # H
181 1 2 0 31.1508 5.53575 6.4168 # H
182 1 2 0 29.6534 4.03538 5.35588 # H
183 1 2 0 28.639 2.70792 4.42905 # H
184 1 2 0 27.016 1.29121 3.42729 # H
185 1 2 0 26.1949 17.1316 20.686 # H
186 1 2 0 26.1949 19.4964 20.5243 # H
187 1 2 0 26.2045 21.404 20.6308 # H
188 1 2 0 26.2045 23.7577 20.3074 # H
189 1 2 0 27.9338 24.2095 6.4168 # H
190 1 2 0 29.9819 23.6629 5.35588 # H
191 1 2 0 31.6387 23.4482 4.42905 # H
192 1 2 0 33.6771 22.751 3.42729 # H
193 1 2 0 20.3695 14.1197 20.686 # H
194 1 2 0 18.3214 12.9372 20.5243 # H
195 1 2 0 16.6646 11.9918 20.6308 # H
196 1 2 0 14.6262 10.8149 20.3074 # H
197 1 2 0 15.4136 6.53972 9.25645 # H
198 1 2 0 14.8629 6.2218 11.54 # H
199 1 2 0 14.2302 5.84531 13.3029 # H
200 1 2 0 13.8147 5.60547 15.6299 # H
201 1 2 0 32.8897 10.907 3.08022 # H
202 1 2 0 33.4404 12.9539 2.0193 # H
203 1 2 0 34.0731 14.4906 1.0767 # H
204 1 2 0 34.4886 16.6045 0.074935 # H
205 1 2 0 32.5371 9.10262 3.92817 # H
206 1 2 0 26.1997 24.8091 7.27264 # H
207 1 2 0 22.1036 15.1264 20.966 # H
208 1 2 0 15.7662 6.73772 7.27264 # H
209 1 2 0 32.5371 6.73772 7.27264 # H
210 1 2 0 15.7662 9.10262 3.92817 # H
211 1 2 0 22.1036 24.8091 7.27264 # H
212 1 2 0 26.1997 15.1264 20.966 # H
213 1 2 0 34.5852 10.2851 7.27264 # H
214 1 2 0 24.1517 11.5791 20.966 # H
215 1 2 0 13.7181 10.2851 7.27264 # H
216 1 2 0 24.1517 23.6266 3.92817 # H
217 1 2 0 72.455 32.1492 35.5113 # H
218 1 2 0 62.0214 45.4908 32.1668 # H
219 1 2 0 72.455 44.1968 18.4735 # H
220 1 2 0 82.8885 45.4908 32.1668 # H
221 1 2 0 74.503 30.9667 32.1668 # H
222 1 2 0 80.8404 46.6732 35.5113 # H
223 1 2 0 64.0695 49.0381 32.1668 # H
224 1 2 0 70.4069 40.6494 18.4735 # H
225 1 2 0 70.4069 30.9667 32.1668 # H
226 1 2 0 74.503 40.6494 18.4735 # H
227 1 2 0 80.8404 49.0381 32.1668 # H
228 1 2 0 64.0695 46.6732 35.5113 # H
229 1 1 0 30.876 7.12007 3.50893 # C
230 1 1 0 29.9992 6.21008 2.86015 # C
231 1 1 0 28.3241 4.32095 1.52079 # C
232 1 1 0 27.3629 3.4581 0.910658 # C
233 1 1 0 25.3974 25.3694 9.7033 # C
234 1 1 0 25.4017 25.7757 11.0644 # C
235 1 1 0 25.4046 26.6993 13.7691 # C
236 1 1 0 25.4046 27.0072 15.1641 # C
237 1 1 0 22.9059 17.6048 20.684 # C
238 1 1 0 22.9016 19.0235 20.6134 # C
239 1 1 0 22.8987 21.8814 20.5827 # C
240 1 1 0 22.8987 23.2992 20.408 # C
241 1 1 0 17.4273 5.68161 5.54322 # C
242 1 1 0 18.3041 4.7666 4.90154 # C
243 1 1 0 19.9792 2.87413 3.56691 # C
244 1 1 0 20.9404 2.01128 2.95678 # C
245 1 1 0 33.4235 7.15242 9.7033 # C
246 1 1 0 33.7732 6.94549 11.0644 # C
247 1 1 0 34.5716 6.48115 13.7691 # C
248 1 1 0 34.8383 6.32721 15.1641 # C
249 1 1 0 14.8798 11.5325 3.50893 # C
250 1 1 0 14.5301 12.7467 2.86015 # C
251 1 1 0 13.7317 15.142 1.52079 # C
252 1 1 0 13.465 16.4059 0.910658 # C
253 1 1 0 20.3584 23.8986 5.54322 # C
254 1 1 0 19.1276 23.5968 4.90154 # C
255 1 1 0 16.6511 23.0923 3.56691 # C
256 1 1 0 15.4232 22.6913 2.95678 # C
257 1 1 0 27.9449 13.1924 20.684 # C
258 1 1 0 29.1757 12.4868 20.6134 # C
259 1 1 0 31.6522 11.0604 20.5827 # C
260 1 1 0 32.8801 10.3514 20.408 # C
261 1 1 0 34.6692 12.2517 5.54322 # C
262 1 1 0 35.0233 13.4685 4.90154 # C
263 1 1 0 35.8246 15.8654 3.56691 # C
264 1 1 0 36.0913 17.1293 2.95678 # C
265 1 1 0 21.6041 11.0347 20.684 # C
266 1 1 0 20.3777 10.3216 20.6134 # C
267 1 1 0 17.9041 8.89011 20.5827 # C
268 1 1 0 16.6762 8.1812 20.408 # C
269 1 1 0 13.6341 9.3101 9.7033 # C
270 1 1 0 13.28 9.11071 11.0644 # C
271 1 1 0 12.4787 8.65139 13.7691 # C
272 1 1 0 12.212 8.49745 15.1641 # C
273 1 1 0 26.6992 23.1793 3.50893 # C
274 1 1 0 27.9256 22.8751 2.86015 # C
275 1 1 0 30.3992 22.3689 1.52079 # C
276 1 1 0 31.6271 21.9679 0.910658 # C
277 1 1 0 75.0025 32.5965 35.9305 # C
278 1 1 0 76.2289 32.9008 36.5793 # C
279 1 1 0 78.7025 33.4069 37.9187 # C
280 1 1 0 79.9304 33.808 38.5288 # C
281 1 1 0 61.9374 46.4657 29.7362 # C
282 1 1 0 61.5833 46.6651 28.3751 # C
283 1 1 0 60.782 47.1245 25.6704 # C
284 1 1 0 60.5153 47.2784 24.2754 # C
285 1 1 0 69.9074 44.7412 18.7554 # C
286 1 1 0 68.681 45.4542 18.826 # C
287 1 1 0 66.2074 46.8857 18.8568 # C
288 1 1 0 64.9795 47.5946 19.0315 # C
289 1 1 0 82.9725 43.5241 33.8963 # C
290 1 1 0 83.3266 42.3074 34.5379 # C
291 1 1 0 84.1279 39.9104 35.8726 # C
292 1 1 0 84.3946 38.6465 36.4827 # C
293 1 1 0 73.7007 30.4065 29.7362 # C
294 1 1 0 73.705 30.0002 28.3751 # C
295 1 1 0 73.7079 29.0765 25.6704 # C
296 1 1 0 73.7079 28.7686 24.2754 # C
297 1 1 0 79.1793 48.6558 35.9305 # C
298 1 1 0 78.3025 49.5658 36.5793 # C
299 1 1 0 76.6274 51.4549 37.9187 # C
300 1 1 0 75.6662 52.3177 38.5288 # C
301 1 1 0 65.7306 50.0942 33.8963 # C
302 1 1 0 66.6074 51.0092 34.5379 # C
303 1 1 0 68.2825 52.9017 35.8726 # C
304 1 1 0 69.2437 53.7646 36.4827 # C
305 1 1 0 71.2092 38.171 18.7554 # C
306 1 1 0 71.2049 36.7524 18.826 # C
307 1 1 0 71.202 33.8944 18.8568 # C
308 1 1 0 71.202 32.4766 19.0315 # C
309 1 1 0 68.6617 31.8773 33.8963 # C
310 1 1 0 67.4309 32.179 34.5379 # C
311 1 1 0 64.9544 32.6835 35.8726 # C
312 1 1 0 63.7265 33.0846 36.4827 # C
313 1 1 0 76.2482 42.5835 18.7554 # C
314 1 1 0 77.479 43.289 18.826 # C
315 1 1 0 79.9555 44.7155 18.8568 # C
316 1 1 0 81.1834 45.4244 19.0315 # C
317 1 1 0 81.7268 48.6234 29.7362 # C
318 1 1 0 82.0765 48.8304 28.3751 # C
319 1 1 0 82.8749 49.2947 25.6704 # C
320 1 1 0 83.1416 49.4486 24.2754 # C
321 1 1 0 63.1831 44.2434 35.9305 # C
322 1 1 0 62.8334 43.0291 36.5793 # C
323 1 1 0 62.035 40.6338 37.9187 # C
324 1 1 0 61.7683 39.3699 38.5288 # C
325 1 1 0 65.7306 48.6558 35.9305 # C
326 1 1 0 66.6074 49.5658 36.5793 # C
327 1 1 0 68.2825 51.4549 37.9187 # C
328 1 1 0 69.2437 52.3177 38.5288 # C
329 1 1 0 71.2092 30.4065 29.7362 # C
330 1 1 0 71.2049 30.0002 28.3751 # C
331 1 1 0 71.202 29.0765 25.6704 # C
332 1 1 0 71.202 28.7686 24.2754 # C
333 1 1 0 73.7007 38.171 18.7554 # C
334 1 1 0 73.705 36.7524 18.826 # C
335 1 1 0 73.7079 33.8944 18.8568 # C
336 1 1 0 73.7079 32.4766 19.0315 # C
337 1 1 0 79.1793 50.0942 33.8963 # C
338 1 1 0 78.3025 51.0092 34.5379 # C
339 1 1 0 76.6274 52.9017 35.8726 # C
340 1 1 0 75.6662 53.7646 36.4827 # C
341 1 1 0 63.1831 48.6234 29.7362 # C
342 1 1 0 62.8334 48.8304 28.3751 # C
343 1 1 0 62.035 49.2947 25.6704 # C
344 1 1 0 61.7683 49.4486 24.2754 # C
345 1 1 0 81.7268 44.2434 35.9305 # C
346 1 1 0 82.0765 43.0291 36.5793 # C
347 1 1 0 82.8749 40.6338 37.9187 # C
348 1 1 0 83.1416 39.3699 38.5288 # C
349 1 1 0 76.2482 31.8773 33.8963 # C
350 1 1 0 77.479 32.179 34.5379 # C
351 1 1 0 79.9555 32.6835 35.8726 # C
352 1 1 0 81.1834 33.0846 36.4827 # C
353 1 1 0 68.6617 42.5835 18.7554 # C
354 1 1 0 67.4309 43.289 18.826 # C
355 1 1 0 64.9544 44.7155 18.8568 # C
356 1 1 0 63.7265 45.4244 19.0315 # C
357 1 1 0 61.9374 43.5241 33.8963 # C
358 1 1 0 61.5833 42.3074 34.5379 # C
359 1 1 0 60.782 39.9104 35.8726 # C
360 1 1 0 60.5153 38.6465 36.4827 # C
361 1 1 0 75.0025 44.7412 18.7554 # C
362 1 1 0 76.2289 45.4542 18.826 # C
363 1 1 0 78.7025 46.8857 18.8568 # C
364 1 1 0 79.9304 47.5946 19.0315 # C
365 1 1 0 82.9725 46.4657 29.7362 # C
366 1 1 0 83.3266 46.6651 28.3751 # C
367 1 1 0 84.1279 47.1245 25.6704 # C
368 1 1 0 84.3946 47.2784 24.2754 # C
369 1 1 0 69.9074 32.5965 35.9305 # C
370 1 1 0 68.681 32.9008 36.5793 # C
371 1 1 0 66.2074 33.4069 37.9187 # C
372 1 1 0 64.9795 33.808 38.5288 # C
373 1 1 0 21.6041 23.1793 3.50893 # C
374 1 1 0 20.3777 22.8751 2.86015 # C
375 1 1 0 17.9041 22.3689 1.52079 # C
376 1 1 0 16.6762 21.9679 0.910658 # C
377 1 1 0 34.6692 9.3101 9.7033 # C
378 1 1 0 35.0233 9.11071 11.0644 # C
379 1 1 0 35.8246 8.65139 13.7691 # C
380 1 1 0 36.0913 8.49745 15.1641 # C
381 1 1 0 26.6992 11.0347 20.684 # C
382 1 1 0 27.9256 10.3216 20.6134 # C
383 1 1 0 30.3992 8.89011 20.5827 # C
384 1 1 0 31.6271 8.1812 20.408 # C
385 1 1 0 13.6341 12.2517 5.54322 # C
386 1 1 0 13.28 13.4685 4.90154 # C
387 1 1 0 12.4787 15.8654 3.56691 # C
388 1 1 0 12.212 17.1293 2.95678 # C
389 1 1 0 22.9059 25.3694 9.7033 # C
390 1 1 0 22.9016 25.7757 11.0644 # C
391 1 1 0 22.8987 26.6993 13.7691 # C
392 1 1 0 22.8987 27.0072 15.1641 # C
393 1 1 0 17.4273 7.12007 3.50893 # C
394 1 1 0 18.3041 6.21008 2.86015 # C
395 1 1 0 19.9792 4.32095 1.52079 # C
396 1 1 0 20.9404 3.4581 0.910658 # C
397 1 1 0 30.876 5.68161 5.54322 # C
398 1 1 0 29.9992 4.7666 4.90154 # C
399 1 1 0 28.3241 2.87413 3.56691 # C
400 1 1 0 27.3629 2.01128 2.95678 # C
401 1 1 0 25.3974 17.6048 20.684 # C
402 1 1 0 25.4017 19.0235 20.6134 # C
403 1 1 0 25.4046 21.8814 20.5827 # C
404 1 1 0 25.4046 23.2992 20.408 # C
405 1 1 0 27.9449 23.8986 5.54322 # C
406 1 1 0 29.1757 23.5968 4.90154 # C
407 1 1 0 31.6522 23.0923 3.56691 # C
408 1 1 0 32.8801 22.6913 2.95678 # C
409 1 1 0 20.3584 13.1924 20.684 # C
410 1 1 0 19.1276 12.4868 20.6134 # C
411 1 1 0 16.6511 11.0604 20.5827 # C
412 1 1 0 15.4232 10.3514 20.408 # C
413 1 1 0 14.8798 7.15242 9.7033 # C
414 1 1 0 14.5301 6.94549 11.0644 # C
415 1 1 0 13.7317 6.48115 13.7691 # C
416 1 1 0 13.465 6.32721 15.1641 # C
417 1 1 0 33.4235 11.5325 3.50893 # C
418 1 1 0 33.7732 12.7467 2.86015 # C
419 1 1 0 34.5716 15.142 1.52079 # C
420 1 1 0 34.8383 16.4059 0.910658 # C
421 1 1 0 32.8115 8.94421 4.80176 # C
422 1 1 0 25.395 24.6613 6.8321 # C
423 1 1 0 22.9083 14.6618 20.9735 # C
424 1 1 0 15.4918 7.50854 6.8321 # C
425 1 1 0 32.8115 7.50854 6.8321 # C
426 1 1 0 15.4918 8.94421 4.80176 # C
427 1 1 0 22.9083 24.6613 6.8321 # C
428 1 1 0 25.395 14.6618 20.9735 # C
429 1 1 0 34.0548 9.66205 6.8321 # C
430 1 1 0 24.1517 12.5083 20.9735 # C
431 1 1 0 14.2485 9.66205 6.8321 # C
432 1 1 0 24.1517 23.9435 4.80176 # C
433 1 1 0 72.455 31.8324 34.6377 # C
434 1 1 0 62.5518 46.1138 32.6074 # C
435 1 1 0 72.455 43.2676 18.466 # C
436 1 1 0 82.3581 46.1138 32.6074 # C
437 1 1 0 73.6983 31.1146 32.6074 # C
438 1 1 0 81.1148 46.8316 34.6377 # C
439 1 1 0 63.7951 48.2673 32.6074 # C
440 1 1 0 71.2116 41.114 18.466 # C
441 1 1 0 71.2116 31.1146 32.6074 # C
442 1 1 0 73.6983 41.114 18.466 # C
443 1 1 0 81.1148 48.2673 32.6074 # C
444 1 1 0 63.7951 46.8316 34.6377 # C
445 1 1 0 32.4019 7.74169 5.4742 # C
446 1 1 0 31.3295 6.83254 4.83134 # C
447 1 1 0 29.6631 5.00309 3.53772 # C
448 1 1 0 28.7839 3.99299 2.82347 # C
449 1 1 0 26.9445 2.27565 1.60913 # C
450 1 1 0 25.8384 1.40555 0.993875 # C
451 1 1 0 24.1517 24.9095 7.50928 # C
452 1 1 0 24.1517 25.1995 9.0277 # C
453 1 1 0 24.1517 26.0668 11.682 # C
454 1 1 0 24.1517 26.5694 13.114 # C
455 1 1 0 24.1517 27.2247 15.8302 # C
456 1 1 0 24.1517 27.4562 17.3486 # C
457 1 1 0 24.1517 15.383 20.9818 # C
458 1 1 0 24.1517 16.9112 20.7491 # C
459 1 1 0 24.1517 19.7028 20.6821 # C
460 1 1 0 24.1517 21.2205 20.6785 # C
461 1 1 0 24.1517 23.9998 20.391 # C
462 1 1 0 24.1517 25.5085 20.1031 # C
463 1 1 0 15.9014 7.74169 5.4742 # C
464 1 1 0 16.9738 6.83254 4.83134 # C
465 1 1 0 18.6402 5.00309 3.53772 # C
466 1 1 0 19.5194 3.99299 2.82347 # C
467 1 1 0 21.3588 2.27565 1.60913 # C
468 1 1 0 22.4649 1.40555 0.993875 # C
469 1 1 0 33.6481 8.4612 7.50928 # C
470 1 1 0 33.8993 8.31618 9.0277 # C
471 1 1 0 34.6504 7.88252 11.682 # C
472 1 1 0 35.0856 7.63125 13.114 # C
473 1 1 0 35.6531 7.30357 15.8302 # C
474 1 1 0 35.8536 7.18783 17.3486 # C
475 1 1 0 14.6552 9.90021 5.4742 # C
476 1 1 0 14.404 11.2835 4.83134 # C
477 1 1 0 13.6529 13.6414 3.53772 # C
478 1 1 0 13.2177 14.9078 2.82347 # C
479 1 1 0 12.6502 17.3594 1.60913 # C
480 1 1 0 12.4497 18.7524 0.993875 # C
481 1 1 0 22.9054 24.19 5.4742 # C
482 1 1 0 21.5819 23.7159 4.83134 # C
483 1 1 0 19.1643 23.1874 3.53772 # C
484 1 1 0 17.85 22.9311 2.82347 # C
485 1 1 0 15.443 22.1968 1.60913 # C
486 1 1 0 14.1364 21.6739 0.993875 # C
487 1 1 0 25.3979 13.2245 20.9818 # C
488 1 1 0 26.7214 12.4603 20.7491 # C
489 1 1 0 29.139 11.0645 20.6821 # C
490 1 1 0 30.4533 10.3057 20.6785 # C
491 1 1 0 32.8603 8.91605 20.391 # C
492 1 1 0 34.1669 8.16168 20.1031 # C
493 1 1 0 33.6481 9.90021 5.4742 # C
494 1 1 0 33.8993 11.2835 4.83134 # C
495 1 1 0 34.6504 13.6414 3.53772 # C
496 1 1 0 35.0856 14.9078 2.82347 # C
497 1 1 0 35.6531 17.3594 1.60913 # C
498 1 1 0 35.8536 18.7524 0.993875 # C
499 1 1 0 22.9054 13.2245 20.9818 # C
500 1 1 0 21.5819 12.4603 20.7491 # C
501 1 1 0 19.1643 11.0645 20.6821 # C
502 1 1 0 17.85 10.3057 20.6785 # C
503 1 1 0 15.443 8.91605 20.391 # C
504 1 1 0 14.1364 8.16168 20.1031 # C
505 1 1 0 14.6552 8.4612 7.50928 # C
506 1 1 0 14.404 8.31618 9.0277 # C
507 1 1 0 13.6529 7.88252 11.682 # C
508 1 1 0 13.2177 7.63125 13.114 # C
509 1 1 0 12.6502 7.30357 15.8302 # C
510 1 1 0 12.4497 7.18783 17.3486 # C
511 1 1 0 25.3979 24.19 5.4742 # C
512 1 1 0 26.7214 23.7159 4.83134 # C
513 1 1 0 29.139 23.1874 3.53772 # C
514 1 1 0 30.4533 22.9311 2.82347 # C
515 1 1 0 32.8603 22.1968 1.60913 # C
516 1 1 0 34.1669 21.6739 0.993875 # C
517 1 1 0 73.7012 31.5859 33.9653 # C
518 1 1 0 75.0247 32.06 34.6081 # C
519 1 1 0 77.4423 32.5884 35.9018 # C
520 1 1 0 78.7566 32.8447 36.616 # C
521 1 1 0 81.1636 33.579 37.8303 # C
522 1 1 0 82.4702 34.1019 38.4456 # C
523 1 1 0 62.9585 47.3147 31.9302 # C
524 1 1 0 62.7073 47.4597 30.4118 # C
525 1 1 0 61.9562 47.8933 27.7575 # C
526 1 1 0 61.521 48.1446 26.3255 # C
527 1 1 0 60.9535 48.4723 23.6093 # C
528 1 1 0 60.753 48.588 22.0908 # C
529 1 1 0 71.2087 42.5514 18.4577 # C
530 1 1 0 69.8852 43.3155 18.6904 # C
531 1 1 0 67.4676 44.7113 18.7574 # C
532 1 1 0 66.1533 45.4701 18.761 # C
533 1 1 0 63.7463 46.8598 19.0485 # C
534 1 1 0 62.4397 47.6142 19.3364 # C
535 1 1 0 81.9514 45.8756 33.9653 # C
536 1 1 0 82.2026 44.4924 34.6081 # C
537 1 1 0 82.9537 42.1345 35.9018 # C
538 1 1 0 83.3889 40.8681 36.616 # C
539 1 1 0 83.9564 38.4165 37.8303 # C
540 1 1 0 84.1569 37.0234 38.4456 # C
541 1 1 0 72.455 30.8664 31.9302 # C
542 1 1 0 72.455 30.5763 30.4118 # C
543 1 1 0 72.455 29.709 27.7575 # C
544 1 1 0 72.455 29.2065 26.3255 # C
545 1 1 0 72.455 28.5511 23.6093 # C
546 1 1 0 72.455 28.3196 22.0908 # C
547 1 1 0 80.7052 48.0342 33.9653 # C
548 1 1 0 79.6328 48.9433 34.6081 # C
549 1 1 0 77.9664 50.7728 35.9018 # C
550 1 1 0 77.0872 51.7829 36.616 # C
551 1 1 0 75.2478 53.5002 37.8303 # C
552 1 1 0 74.1417 54.3703 38.4456 # C
553 1 1 0 64.2047 48.0342 33.9653 # C
554 1 1 0 65.2771 48.9433 34.6081 # C
555 1 1 0 66.9435 50.7728 35.9018 # C
556 1 1 0 67.8227 51.7829 36.616 # C
557 1 1 0 69.6621 53.5002 37.8303 # C
558 1 1 0 70.7682 54.3703 38.4456 # C
559 1 1 0 72.455 40.3929 18.4577 # C
560 1 1 0 72.455 38.8646 18.6904 # C
561 1 1 0 72.455 36.073 18.7574 # C
562 1 1 0 72.455 34.5554 18.761 # C
563 1 1 0 72.455 31.7761 19.0485 # C
564 1 1 0 72.4549 30.2673 19.3364 # C
565 1 1 0 71.2087 31.5859 33.9653 # C
566 1 1 0 69.8852 32.06 34.6081 # C
567 1 1 0 67.4676 32.5884 35.9018 # C
568 1 1 0 66.1533 32.8447 36.616 # C
569 1 1 0 63.7463 33.579 37.8303 # C
570 1 1 0 62.4397 34.1019 38.4456 # C
571 1 1 0 73.7012 42.5514 18.4577 # C
572 1 1 0 75.0247 43.3155 18.6904 # C
573 1 1 0 77.4423 44.7113 18.7574 # C
574 1 1 0 78.7566 45.4701 18.761 # C
575 1 1 0 81.1636 46.8598 19.0485 # C
576 1 1 0 82.4702 47.6142 19.3364 # C
577 1 1 0 81.9514 47.3147 31.9302 # C
578 1 1 0 82.2026 47.4597 30.4118 # C
579 1 1 0 82.9537 47.8933 27.7575 # C
580 1 1 0 83.3889 48.1446 26.3255 # C
581 1 1 0 83.9564 48.4723 23.6093 # C
582 1 1 0 84.1569 48.588 22.0908 # C
583 1 1 0 62.9585 45.8756 33.9653 # C
584 1 1 0 62.7073 44.4924 34.6081 # C
585 1 1 0 61.9562 42.1345 35.9018 # C
586 1 1 0 61.521 40.8681 36.616 # C
587 1 1 0 60.9535 38.4165 37.8303 # C
588 1 1 0 60.753 37.0234 38.4456 # C
589 1 4 0 49.6582 15.6811 39.2829 # O
590 1 4 0 25.2824 27.5859 17.8468 # O
591 1 4 0 71.3242 26.0214 20.0593 # O
592 1 4 0 46.9484 42.2633 1.68998 # O
593 1 4 0 59.5522 47.9756 17.8468 # O
594 1 4 0 37.0544 32.818 39.2829 # O
595 1 4 0 61.4302 21.8736 1.68998 # O
596 1 4 0 35.1764 8.88453 20.0593 # O
597 1 4 0 36.5313 19.5268 1.68998 # O
598 1 4 0 38.4093 48.7579 20.0593 # O
599 1 4 0 60.0753 8.10228 17.8468 # O
600 1 4 0 58.1973 35.1647 39.2829 # O
601 1 4 0 58.1973 20.6111 0.156575 # O
602 1 4 0 60.0753 47.6736 21.5927 # O
603 1 4 0 38.4093 7.018 19.3802 # O
604 1 4 0 36.5313 36.249 37.7495 # O
605 1 4 0 25.2824 28.1899 21.5927 # O
606 1 4 0 49.6582 40.0947 0.156575 # O
607 1 4 0 46.9484 13.5125 37.7495 # O
608 1 4 0 71.3242 29.7545 19.3802 # O
609 1 4 0 61.4302 33.9022 37.7495 # O
610 1 4 0 35.1764 46.8913 19.3802 # O
611 1 4 0 59.5522 7.80025 21.5927 # O
612 1 4 0 37.0544 22.9579 0.156575 # O
613 1 4 0 46.9484 40.0947 0.156575 # O
614 1 4 0 71.3242 28.1899 21.5927 # O
615 1 4 0 25.2824 29.7545 19.3802 # O
616 1 4 0 49.6582 13.5125 37.7495 # O
617 1 4 0 37.0544 7.80025 21.5927 # O
618 1 4 0 59.5522 22.9579 0.156575 # O
619 1 4 0 35.1764 33.9022 37.7495 # O
620 1 4 0 61.4302 46.8913 19.3802 # O
621 1 4 0 60.0753 36.249 37.7495 # O
622 1 4 0 58.1973 7.018 19.3802 # O
623 1 4 0 36.5313 47.6736 21.5927 # O
624 1 4 0 38.4093 20.6111 0.156575 # O
625 1 4 0 38.4093 35.1647 39.2829 # O
626 1 4 0 36.5313 8.10228 17.8468 # O
627 1 4 0 58.1973 48.7579 20.0593 # O
628 1 4 0 60.0753 19.5268 1.68998 # O
629 1 4 0 71.3242 27.5859 17.8468 # O
630 1 4 0 46.9484 15.6811 39.2829 # O
631 1 4 0 49.6582 42.2633 1.68998 # O
632 1 4 0 25.2824 26.0214 20.0593 # O
633 1 4 0 35.1764 21.8736 1.68998 # O
634 1 4 0 61.4302 8.88453 20.0593 # O
635 1 4 0 37.0544 47.9756 17.8468 # O
636 1 4 0 59.5522 32.818 39.2829 # O
637 2 21 0 23.9597 20.6599 6.11878 # Ar
638 3 21 0 19.1463 34.0311 20.1273 # Ar
639 4 21 0 37.2136 6.07686 36.4625 # Ar
640 5 21 0 23.1302 34.5099 32.2209 # Ar
641 6 21 0 24.5538 35.4525 35.3493 # Ar
642 7 21 0 27.1346 34.0929 28.3652 # Ar
643 8 21 0 18.3279 35.9098 34.1648 # Ar
644 9 21 0 37.5433 11.4063 3.48297 # Ar
645 10 21 0 8.59689 17.6545 1.47786 # Ar
646 11 21 0 45.912 6.33913 35.6791 # Ar
647 12 21 0 8.16197 23.411 -2.81708 # Ar
648 13 21 0 13.3509 5.90495 31.2543 # Ar
649 14 21 0 23.5744 22.395 12.3006 # Ar
650 15 21 0 28.6311 41.6726 15.4264 # Ar
651 16 21 0 13.7219 35.4764 34.4538 # Ar
652 17 21 0 47.0324 1.46499 33.3909 # Ar
653 18 21 0 29.3224 0.0587633 -1.0809 # Ar
654 19 21 0 28.0399 38.1522 21.2572 # Ar
655 20 21 0 39.5429 17.8833 1.90164 # Ar
656 21 21 0 42.435 3.83265 22.3489 # Ar
657 22 21 0 24.1667 4.83826 1.621 # Ar
658 23 21 0 42.8943 6.13695 31.2322 # Ar
659 24 21 0 13.2292 26.2801 8.70127 # Ar
660 25 21 0 36.158 25.8006 2.5376 # Ar
661 26 21 0 8.03129 20.1928 3.61417 # Ar
662 27 21 0 44.8787 16.3064 36.8451 # Ar
663 28 21 0 38.5822 11.2182 14.7649 # Ar
664 29 21 0 27.9315 8.24601 6.05065 # Ar
665 30 21 0 31.8118 39.3849 29.3507 # Ar
666 31 21 0 34.9134 39.0662 32.0436 # Ar
667 32 21 0 36.543 3.16695 16.8942 # Ar
668 33 21 0 30.8798 40.5174 38.7817 # Ar
669 34 21 0 37.3007 12.1729 19.0462 # Ar
670 35 21 0 26.4988 5.36997 13.5908 # Ar
671 36 21 0 47.985 5.57819 26.6615 # Ar
672 37 21 0 20.4673 32.4934 22.9947 # Ar
673 38 21 0 29.0897 35.8881 18.3696 # Ar
674 39 21 0 38.199 9.4173 34.9053 # Ar
675 40 21 0 21.6708 40.8171 14.8656 # Ar
676 41 21 0 17.4209 12.2159 0.880363 # Ar
677 42 21 0 3.65902 38.5986 35.2361 # Ar
678 43 21 0 38.9324 14.5251 2.73251 # Ar
679 44 21 0 38.9923 38.7263 38.8104 # Ar
680 45 21 0 12.0123 1.92968 18.4685 # Ar
681 46 21 0 5.38876 31.7143 37.7895 # Ar
682 47 21 0 15.472 6.54126 23.3755 # Ar
683 48 21 0 34.0116 6.88109 28.2308 # Ar
684 49 21 0 14.9525 39.0998 33.7677 # Ar
685 50 21 0 14.3787 1.79299 11.4898 # Ar
686 51 21 0 5.14333 8.73311 17.8727 # Ar
687 52 21 0 26.8613 17.0787 7.07146 # Ar
688 53 21 0 38.0294 9.65456 7.32964 # Ar
689 54 21 0 40.5872 6.51817 22.4643 # Ar
690 55 21 0 2.32821 6.38748 36.9362 # Ar
691 56 21 0 31.0746 36.9884 22.6701 # Ar
692 57 21 0 21.8359 22.0971 8.48137 # Ar
693 58 21 0 32.616 9.61557 14.4221 # Ar
694 59 21 0 32.0055 18.3363 1.37257 # Ar
695 60 21 0 43.3171 3.83038 36.5291 # Ar
696 61 21 0 13.6146 4.23844 7.78852 # Ar
697 62 21 0 29.1244 21.9643 19.6931 # Ar
698 63 21 0 3.60679 3.50151 26.3477 # Ar
699 64 21 0 8.55169 7.7942 16.3988 # Ar
700 65 21 0 4.62464 28.1049 37.4687 # Ar
701 66 21 0 42.9173 13.8279 33.6115 # Ar
702 67 21 0 5.53598 3.28098 22.5161 # Ar
703 68 21 0 42.2074 3.09374 32.8623 # Ar
704 69 21 0 34.5574 35.3137 33.6092 # Ar
705 70 21 0 9.06765 9.75685 37.4699 # Ar
706 71 21 0 10.3695 4.4172 15.9372 # Ar
707 72 21 0 16.0042 37.5899 36.8038 # Ar
708 73 21 0 31.1372 10.885 7.64248 # Ar
709 74 21 0 3.87655 6.07062 33.4833 # Ar
710 75 21 0 27.7893 7.27628 23.1344 # Ar
711 76 21 0 22.1202 34.6853 25.4789 # Ar
712 77 21 0 28.8552 14.4654 17.3054 # Ar
713 78 21 0 17.2378 15.6988 2.0007 # Ar
714 79 21 0 23.9594 32.0793 22.506 # Ar
715 80 21 0 26.4114 12.5641 4.07187 # Ar
716 81 21 0 27.7526 30.3134 38.8401 # Ar
717 82 21 0 37.8144 34.1743 1.66083 # Ar
718 83 21 0 21.4315 6.60868 15.3731 # Ar
719 84 21 0 31.8943 41.2605 33.1983 # Ar
720 85 21 0 30.3821 29.1974 36.4819 # Ar
721 86 21 0 18.8923 4.88516 20.9705 # Ar
722 87 21 0 24.5604 28.3379 7.74737 # Ar
723 88 21 0 9.21401 4.09279 7.42722 # Ar
724 89 21 0 -0.0321183 9.42102 37.2531 # Ar
725 90 21 0 1.61619 3.90711 31.4036 # Ar
726 91 21 0 24.1014 8.77599 13.2916 # Ar
727 92 21 0 46.0365 7.34113 18.424 # Ar
728 93 21 0 40.6879 3.88297 38.8815 # Ar
729 94 21 0 18.4412 17.216 5.32073 # Ar
730 95 21 0 40.298 4.49885 25.8776 # Ar
731 96 21 0 17.7714 23.6815 8.33723 # Ar
732 97 21 0 19.7404 18.8907 8.69588 # Ar
733 98 21 0 43.0818 13.6837 39.4383 # Ar
734 99 21 0 28.751 10.7653 24.1185 # Ar
735 100 21 0 33.3237 7.42795 23.489 # Ar
736 101 21 0 15.3636 18.7113 3.36804 # Ar
737 102 21 0 21.8551 29.2978 11.7478 # Ar
738 103 21 0 20.3287 8.52158 5.62131 # Ar
739 104 21 0 23.3276 30.624 15.4652 # Ar
740 105 21 0 12.7685 5.02365 34.8608 # Ar
741 106 21 0 24.8678 11.8193 17.7827 # Ar
742 107 21 0 19.58 18.6877 22.7426 # Ar
743 108 21 0 19.5398 26.5834 9.28099 # Ar
744 109 21 0 14.0995 36.2107 30.722 # Ar
745 110 21 0 29.0448 36.2266 35.1613 # Ar
746 111 21 0 44.2689 18.1898 1.306 # Ar
747 112 21 0 14.012 16.6455 6.78237 # Ar
748 113 21 0 31.4331 9.95792 11.2967 # Ar
749 114 21 0 20.7201 22.6856 16.999 # Ar
750 115 21 0 24.1625 38.5435 38.1315 # Ar
751 116 21 0 37.9311 38.037 21.9221 # Ar
752 117 21 0 29.8284 7.93286 8.86229 # Ar
753 118 21 0 30.9873 13.7927 4.79998 # Ar
754 119 21 0 36.4369 7.87572 4.66325 # Ar
755 120 21 0 12.953 1.7969 31.0885 # Ar
756 121 21 0 4.20052 35.153 37.2913 # Ar
757 122 21 0 9.78209 11.2313 14.5303 # Ar
758 123 21 0 12.6132 13.1507 14.3664 # Ar
759 124 21 0 24.0797 2.99763 4.71096 # Ar
760 125 21 0 29.1497 5.66355 16.3738 # Ar
761 126 21 0 32.9345 25.822 1.24957 # Ar
762 127 21 0 33.8122 4.4293 2.73462 # Ar