# LAMMPS data file written by WriteLammpsdata function in RASPA(written by Zhao Li)
1912 atoms
0 bonds
0 angles
0 dihedrals
0 impropers
0 25.6 xlo xhi
0 25.6 ylo yhi
0 25.6 zlo zhi
1.56755e-15 1.56755e-15 1.56755e-15 xy xz yz

3 atom types
0 bond types
0 angle types
0 dihedral types
0 improper types

Masses

1 15.9994 # Ow
2 1.00079 # Hw
3 0 # Lw

Pair Coeffs

1 0.155002 3.1536 # Ow
2 0 0 # Hw
3 0 0 # Lw

Atoms

1 2 1 0 -2.23275 21.3883 -0.677136 # TIP4P Ow
2 2 3 -1.04 -2.13424 21.3393 -0.575213 # TIP4P Lw
3 2 2 0.52 -1.28044 21.4842 -0.68914 # TIP4P Hw
4 2 2 0.52 -2.41554 20.9091 0.131061 # TIP4P Hw
5 3 1 0 12.7345 0.295618 8.27142 # TIP4P Ow
6 3 3 -1.04 12.7375 0.383343 8.14978 # TIP4P Lw
7 3 2 0.52 12.7678 0.0243243 7.35407 # TIP4P Hw
8 3 2 0.52 12.7245 1.2522 8.23857 # TIP4P Hw
9 4 1 0 6.95974 21.346 6.87982 # TIP4P Ow
10 4 3 -1.04 7.10438 21.3253 6.84585 # TIP4P Lw
11 4 2 0.52 7.32414 20.9131 6.10779 # TIP4P Hw
12 4 2 0.52 7.72517 21.6173 7.3865 # TIP4P Hw
13 5 1 0 4.34799 20.9157 7.7182 # TIP4P Ow
14 5 3 -1.04 4.44167 20.8013 7.74355 # TIP4P Lw
15 5 2 0.52 4.20131 20.1504 8.27416 # TIP4P Hw
16 5 2 0.52 5.22643 20.7874 7.36025 # TIP4P Hw
17 6 1 0 22.5864 24.8755 3.16296 # TIP4P Ow
18 6 3 -1.04 22.5113 24.8173 3.04688 # TIP4P Lw
19 6 2 0.52 21.6882 24.5448 3.15265 # TIP4P Hw
20 6 2 0.52 22.8981 24.7515 2.26649 # TIP4P Hw
21 7 1 0 19.2595 8.14255 15.9993 # TIP4P Ow
22 7 3 -1.04 19.1436 8.11583 15.9079 # TIP4P Lw
23 7 2 0.52 18.634 7.41926 16.0422 # TIP4P Hw
24 7 2 0.52 18.9798 8.65708 15.2422 # TIP4P Hw
25 8 1 0 15.9059 22.8996 9.21246 # TIP4P Ow
26 8 3 -1.04 15.8495 22.7679 9.16783 # TIP4P Lw
27 8 2 0.52 15.1344 22.447 9.55331 # TIP4P Hw
28 8 2 0.52 16.2367 22.3239 8.52297 # TIP4P Hw
29 9 1 0 22.8223 24.1174 25.6703 # TIP4P Ow
30 9 3 -1.04 22.9079 23.9981 25.6394 # TIP4P Lw
31 9 2 0.52 23.7781 24.0669 25.6694 # TIP4P Hw
32 9 2 0.52 22.5352 23.2364 25.43 # TIP4P Hw
33 10 1 0 22.7659 25.01 6.36169 # TIP4P Ow
34 10 3 -1.04 22.8652 25.007 6.24931 # TIP4P Lw
35 10 2 0.52 22.7035 24.5279 5.53712 # TIP4P Hw
36 10 2 0.52 23.6041 25.4692 6.30834 # TIP4P Hw
37 11 1 0 18.2892 20.6952 8.4531 # TIP4P Ow
38 11 3 -1.04 18.3358 20.7074 8.31106 # TIP4P Lw
39 11 2 0.52 19.0571 21.1642 8.12688 # TIP4P Hw
40 11 2 0.52 17.8857 20.3213 7.66977 # TIP4P Hw
41 12 1 0 22.0728 1.89879 4.35016 # TIP4P Ow
42 12 3 -1.04 22.0318 1.83486 4.22081 # TIP4P Lw
43 12 2 0.52 21.4574 2.23594 3.69916 # TIP4P Hw
44 12 2 0.52 22.368 1.06221 3.9907 # TIP4P Hw
45 13 1 0 3.87699 0.597569 25.3221 # TIP4P Ow
46 13 3 -1.04 3.78898 0.487491 25.2707 # TIP4P Lw
47 13 2 0.52 3.00371 0.354076 25.6292 # TIP4P Hw
48 13 2 0.52 4.06281 -0.0188395 24.6138 # TIP4P Hw
49 14 1 0 15.0606 0.206882 9.48704 # TIP4P Ow
50 14 3 -1.04 14.9952 0.0772938 9.4492 # TIP4P Lw
51 14 2 0.52 15.3889 -0.680042 9.63459 # TIP4P Hw
52 14 2 0.52 14.2215 0.0814983 9.04385 # TIP4P Hw
53 15 1 0 3.89411 15.2537 21.2861 # TIP4P Ow
54 15 3 -1.04 3.78814 15.3485 21.2381 # TIP4P Lw
55 15 2 0.52 3.64223 15.4419 20.382 # TIP4P Hw
56 15 2 0.52 3.31821 15.8054 21.8155 # TIP4P Hw
57 16 1 0 4.57748 24.8463 22.4402 # TIP4P Ow
58 16 3 -1.04 4.57837 24.8181 22.2928 # TIP4P Lw
59 16 2 0.52 4.10554 24.1571 21.9727 # TIP4P Hw
60 16 2 0.52 5.05644 25.3152 21.7568 # TIP4P Hw
61 17 1 0 11.5119 8.9042 1.66477 # TIP4P Ow
62 17 3 -1.04 11.4128 8.92194 1.55358 # TIP4P Lw
63 17 2 0.52 10.861 9.59892 1.56543 # TIP4P Hw
64 17 2 0.52 11.3887 8.34808 0.895501 # TIP4P Hw
65 18 1 0 13.9983 24.3172 6.4737 # TIP4P Ow
66 18 3 -1.04 14.0838 24.4037 6.56147 # TIP4P Lw
67 18 2 0.52 14.1542 24.2252 7.41362 # TIP4P Hw
68 18 2 0.52 14.5106 25.0847 6.21944 # TIP4P Hw
69 19 1 0 20.4466 20.4084 13.8801 # TIP4P Ow
70 19 3 -1.04 20.5772 20.4812 13.868 # TIP4P Lw
71 19 2 0.52 20.6651 21.2789 14.2129 # TIP4P Hw
72 19 2 0.52 21.2482 20.1068 13.4526 # TIP4P Hw
73 20 1 0 11.673 5.89213 22.1297 # TIP4P Ow
74 20 3 -1.04 11.6322 6.01226 22.2098 # TIP4P Lw
75 20 2 0.52 12.2423 6.52326 22.5699 # TIP4P Hw
76 20 2 0.52 10.7856 6.19945 22.315 # TIP4P Hw
77 21 1 0 9.80359 19.5965 5.72151 # TIP4P Ow
78 21 3 -1.04 9.90011 19.6895 5.65411 # TIP4P Lw
79 21 2 0.52 10.22 19.4894 4.86632 # TIP4P Hw
80 21 2 0.52 10.1412 20.4297 6.05015 # TIP4P Hw
81 22 1 0 22.1793 17.4593 6.76012 # TIP4P Ow
82 22 3 -1.04 22.0534 17.5395 6.7752 # TIP4P Lw
83 22 2 0.52 21.3304 17.3003 6.34732 # TIP4P Hw
84 22 2 0.52 22.0448 18.2446 7.2907 # TIP4P Hw
85 23 1 0 11.9421 8.78449 9.48466 # TIP4P Ow
86 23 3 -1.04 12.0456 8.69855 9.41841 # TIP4P Lw
87 23 2 0.52 11.8117 7.94537 9.04292 # TIP4P Hw
88 23 2 0.52 12.8814 8.95227 9.40888 # TIP4P Hw
89 24 1 0 7.7117 7.46492 0.293912 # TIP4P Ow
90 24 3 -1.04 7.56957 7.43689 0.255001 # TIP4P Lw
91 24 2 0.52 7.37389 6.70883 -0.186132 # TIP4P Hw
92 24 2 0.52 6.93924 8.00206 0.469992 # TIP4P Hw
93 25 1 0 10.4842 7.73718 25.184 # TIP4P Ow
94 25 3 -1.04 10.3668 7.82779 25.1616 # TIP4P Lw
95 25 2 0.52 9.61222 7.67393 25.5738 # TIP4P Hw
96 25 2 0.52 10.4389 8.50823 24.6187 # TIP4P Hw
97 26 1 0 12.66 13.5262 7.89911 # TIP4P Ow
98 26 3 -1.04 12.5164 13.4849 7.91254 # TIP4P Lw
99 26 2 0.52 12.2737 12.6751 7.69248 # TIP4P Hw
100 26 2 0.52 11.9248 14.0541 8.2107 # TIP4P Hw
101 27 1 0 18.4829 5.4376 16.91 # TIP4P Ow
102 27 3 -1.04 18.3947 5.32963 16.8546 # TIP4P Lw
103 27 2 0.52 18.4158 5.14453 16.0012 # TIP4P Hw
104 27 2 0.52 17.8611 4.88727 17.3861 # TIP4P Hw
105 28 1 0 19.9624 24.8218 5.82516 # TIP4P Ow
106 28 3 -1.04 20.0014 24.9667 5.82662 # TIP4P Lw
107 28 2 0.52 19.4457 25.5705 5.52745 # TIP4P Hw
108 28 2 0.52 20.7835 25.2046 6.13426 # TIP4P Hw
109 29 1 0 5.00453 12.0176 17.0965 # TIP4P Ow
110 29 3 -1.04 4.92538 12.0749 16.9827 # TIP4P Lw
111 29 2 0.52 5.08338 11.8102 16.1654 # TIP4P Hw
112 29 2 0.52 4.30743 12.6722 17.1384 # TIP4P Hw
113 30 1 0 6.29688 8.5817 4.29059 # TIP4P Ow
114 30 3 -1.04 6.44591 8.59111 4.27645 # TIP4P Lw
115 30 2 0.52 6.84294 8.22177 3.59167 # TIP4P Hw
116 30 2 0.52 6.91504 9.01515 4.87901 # TIP4P Hw
117 31 1 0 4.70014 8.41991 1.57603 # TIP4P Ow
118 31 3 -1.04 4.66449 8.52151 1.68047 # TIP4P Lw
119 31 2 0.52 4.42927 9.32808 1.44155 # TIP4P Hw
120 31 2 0.52 4.69252 8.30542 2.52633 # TIP4P Hw
121 32 1 0 21.1562 22.2988 2.37002 # TIP4P Ow
122 32 3 -1.04 21.0288 22.2371 2.32035 # TIP4P Lw
123 32 2 0.52 20.4252 21.965 2.89002 # TIP4P Hw
124 32 2 0.52 20.8921 22.1509 1.46196 # TIP4P Hw
125 33 1 0 14.3592 23.2751 16.4003 # TIP4P Ow
126 33 3 -1.04 14.3693 23.1261 16.4138 # TIP4P Lw
127 33 2 0.52 13.6744 22.6252 16.2427 # TIP4P Hw
128 33 2 0.52 15.1225 22.7607 16.6629 # TIP4P Hw
129 34 1 0 11.0908 11.012 7.79573 # TIP4P Ow
130 34 3 -1.04 10.9949 10.903 7.83339 # TIP4P Lw
131 34 2 0.52 11.2172 10.3187 8.44343 # TIP4P Hw
132 34 2 0.52 10.2155 10.8536 7.44218 # TIP4P Hw
133 35 1 0 11.1342 8.17587 12.2778 # TIP4P Ow
134 35 3 -1.04 11.0093 8.22636 12.2119 # TIP4P Lw
135 35 2 0.52 11.0647 8.73649 11.505 # TIP4P Hw
136 35 2 0.52 10.2276 8.00963 12.536 # TIP4P Hw
137 36 1 0 14.8399 17.9283 4.95984 # TIP4P Ow
138 36 3 -1.04 14.98 17.9132 5.01134 # TIP4P Lw
139 36 2 0.52 15.2574 17.1364 5.2989 # TIP4P Hw
140 36 2 0.52 15.5166 18.6022 5.02302 # TIP4P Hw
141 37 1 0 19.5948 11.6858 14.6275 # TIP4P Ow
142 37 3 -1.04 19.7168 11.705 14.5423 # TIP4P Lw
143 37 2 0.52 20.4736 11.9385 14.9106 # TIP4P Hw
144 37 2 0.52 19.6687 11.5831 13.6787 # TIP4P Hw
145 38 1 0 8.92507 9.94384 0.97073 # TIP4P Ow
146 38 3 -1.04 8.82498 9.96248 0.860576 # TIP4P Lw
147 38 2 0.52 8.94294 10.5917 0.266352 # TIP4P Hw
148 38 2 0.52 8.1253 9.44161 0.814617 # TIP4P Hw
149 39 1 0 15.2017 1.83121 6.38062 # TIP4P Ow
150 39 3 -1.04 15.2906 1.89661 6.48217 # TIP4P Lw
151 39 2 0.52 15.4213 2.75985 6.45562 # TIP4P Hw
152 39 2 0.52 15.6767 1.41347 7.09897 # TIP4P Hw
153 40 1 0 15.2926 15.4513 8.70264 # TIP4P Ow
154 40 3 -1.04 15.2494 15.3378 8.6146 # TIP4P Lw
155 40 2 0.52 14.4223 15.0578 8.63875 # TIP4P Hw
156 40 2 0.52 15.8253 14.9581 8.07881 # TIP4P Hw
157 41 1 0 11.1223 4.06415 12.5812 # TIP4P Ow
158 41 3 -1.04 11.0497 3.94382 12.6338 # TIP4P Lw
159 41 2 0.52 11.1115 3.18014 12.2143 # TIP4P Hw
160 41 2 0.52 10.5664 4.00817 13.3585 # TIP4P Hw
161 42 1 0 18.6459 13.5562 1.38715 # TIP4P Ow
162 42 3 -1.04 18.5958 13.6495 1.2809 # TIP4P Lw
163 42 2 0.52 18.3675 13.3361 0.498176 # TIP4P Hw
164 42 2 0.52 18.533 14.5049 1.44611 # TIP4P Hw
165 43 1 0 4.05734 24.3874 8.30259 # TIP4P Ow
166 43 3 -1.04 4.04046 24.2612 8.22325 # TIP4P Lw
167 43 2 0.52 4.28842 23.4959 8.56356 # TIP4P Hw
168 43 2 0.52 3.69443 24.2931 7.42187 # TIP4P Hw
169 44 1 0 18.9274 1.22834 16.1157 # TIP4P Ow
170 44 3 -1.04 18.8335 1.12713 16.1745 # TIP4P Lw
171 44 2 0.52 18.1231 0.881636 15.7295 # TIP4P Hw
172 44 2 0.52 18.9986 0.784405 16.9608 # TIP4P Hw
173 45 1 0 22.6105 24.7486 10.9699 # TIP4P Ow
174 45 3 -1.04 22.6596 24.7832 10.8325 # TIP4P Lw
175 45 2 0.52 22.0929 24.8509 10.1713 # TIP4P Hw
176 45 2 0.52 23.5119 24.9162 10.6949 # TIP4P Hw
177 46 1 0 10.3255 1.885 1.86694 # TIP4P Ow
178 46 3 -1.04 10.2691 2.01992 1.83354 # TIP4P Lw
179 46 2 0.52 9.8965 2.50342 2.45835 # TIP4P Hw
180 46 2 0.52 10.314 2.3206 1.01468 # TIP4P Hw
181 47 1 0 6.23959 14.1937 22.4039 # TIP4P Ow
182 47 3 -1.04 6.19355 14.2798 22.29 # TIP4P Lw
183 47 2 0.52 6.71525 14.4069 21.6011 # TIP4P Hw
184 47 2 0.52 5.40427 14.653 22.3171 # TIP4P Hw
185 48 1 0 16.981 4.07068 12.4837 # TIP4P Ow
186 48 3 -1.04 16.9025 3.95069 12.4397 # TIP4P Lw
187 48 2 0.52 16.0522 4.02952 12.256 # TIP4P Hw
188 48 2 0.52 17.2966 3.1745 12.3675 # TIP4P Hw
189 49 1 0 19.7079 12.4895 4.09116 # TIP4P Ow
190 49 3 -1.04 19.7278 12.4039 3.96954 # TIP4P Lw
191 49 2 0.52 19.9349 11.5601 4.05911 # TIP4P Hw
192 49 2 0.52 19.6362 12.7508 3.17313 # TIP4P Hw
193 50 1 0 13.019 6.22636 1.49205 # TIP4P Ow
194 50 3 -1.04 12.8742 6.2628 1.47754 # TIP4P Lw
195 50 2 0.52 12.2863 5.64541 1.28753 # TIP4P Hw
196 50 2 0.52 12.6208 7.09198 1.58324 # TIP4P Hw
197 51 1 0 14.575 6.85794 4.7981 # TIP4P Ow
198 51 3 -1.04 14.5784 6.93092 4.66709 # TIP4P Lw
199 51 2 0.52 14.3913 6.50675 3.9268 # TIP4P Hw
200 51 2 0.52 14.7856 7.77921 4.64602 # TIP4P Hw
201 52 1 0 22.5955 13.1964 16.1208 # TIP4P Ow
202 52 3 -1.04 22.7167 13.2384 16.1985 # TIP4P Lw
203 52 2 0.52 22.6276 13.555 17.0077 # TIP4P Hw
204 52 2 0.52 23.5104 13.1657 15.8411 # TIP4P Hw
205 53 1 0 19.205 24.7369 13.636 # TIP4P Ow
206 53 3 -1.04 19.3279 24.7148 13.5529 # TIP4P Lw
207 53 2 0.52 20.1095 24.9588 13.857 # TIP4P Hw
208 53 2 0.52 19.2604 24.3423 12.7657 # TIP4P Hw
209 54 1 0 19.7298 2.86559 2.93738 # TIP4P Ow
210 54 3 -1.04 19.6208 2.90057 3.03438 # TIP4P Lw
211 54 2 0.52 18.9365 3.37419 2.7691 # TIP4P Hw
212 54 2 0.52 19.672 2.63024 3.86339 # TIP4P Hw
213 55 1 0 13.4692 17.051 2.67236 # TIP4P Ow
214 55 3 -1.04 13.452 17.1692 2.76309 # TIP4P Lw
215 55 2 0.52 14.1091 17.4209 3.28061 # TIP4P Hw
216 55 2 0.52 12.6948 17.6046 2.77281 # TIP4P Hw
217 56 1 0 11.7019 5.69579 15.2375 # TIP4P Ow
218 56 3 -1.04 11.5956 5.78072 15.1744 # TIP4P Lw
219 56 2 0.52 10.8611 5.95731 15.6129 # TIP4P Hw
220 56 2 0.52 11.7123 6.09773 14.3689 # TIP4P Hw
221 57 1 0 10.7231 15.0881 3.8446 # TIP4P Ow
222 57 3 -1.04 10.6003 15.1584 3.79486 # TIP4P Lw
223 57 2 0.52 10.5407 15.3895 2.95462 # TIP4P Hw
224 57 2 0.52 9.94647 15.3364 4.34603 # TIP4P Hw
225 58 1 0 24.074 21.4619 18.1919 # TIP4P Ow
226 58 3 -1.04 24.0467 21.5878 18.115 # TIP4P Lw
227 58 2 0.52 23.2267 21.7983 17.9002 # TIP4P Hw
228 58 2 0.52 24.7082 22.109 17.8835 # TIP4P Hw
229 59 1 0 21.0968 17.8732 2.90811 # TIP4P Ow
230 59 3 -1.04 21.1382 17.8436 3.04921 # TIP4P Lw
231 59 2 0.52 21.0965 18.4705 3.65602 # TIP4P Hw
232 59 2 0.52 21.421 17.0452 3.26244 # TIP4P Hw
233 60 1 0 17.3293 22.4905 5.12143 # TIP4P Ow
234 60 3 -1.04 17.2338 22.6059 5.11275 # TIP4P Lw
235 60 2 0.52 16.5317 22.5526 4.59584 # TIP4P Hw
236 60 2 0.52 17.381 23.3296 5.5792 # TIP4P Hw
237 61 1 0 23.9475 15.964 20.7558 # TIP4P Ow
238 61 3 -1.04 23.8455 15.8646 20.7086 # TIP4P Lw
239 61 2 0.52 23.9254 15.5001 19.9188 # TIP4P Hw
240 61 2 0.52 23.1733 15.6514 21.2239 # TIP4P Hw
241 62 1 0 22.9017 13.2499 19.0788 # TIP4P Ow
242 62 3 -1.04 22.8032 13.2731 19.1895 # TIP4P Lw
243 62 2 0.52 22.019 13.6137 19.0107 # TIP4P Hw
244 62 2 0.52 23.0145 13.0668 20.0115 # TIP4P Hw
245 63 1 0 0.661872 10.4704 3.21768 # TIP4P Ow
246 63 3 -1.04 0.704017 10.3291 3.24536 # TIP4P Lw
247 63 2 0.52 1.52799 10.0823 3.09331 # TIP4P Hw
248 63 2 0.52 0.124975 9.75485 3.55829 # TIP4P Hw
249 64 1 0 19.9192 10.0243 6.18954 # TIP4P Ow
250 64 3 -1.04 20.0278 10.1001 6.26002 # TIP4P Lw
251 64 2 0.52 20.8534 9.81763 6.21878 # TIP4P Hw
252 64 2 0.52 19.8336 10.8225 6.71088 # TIP4P Hw
253 65 1 0 3.73972 11.2522 2.69663 # TIP4P Ow
254 65 3 -1.04 3.7492 11.3841 2.76749 # TIP4P Lw
255 65 2 0.52 4.18964 11.4442 3.5194 # TIP4P Hw
256 65 2 0.52 3.36385 12.0904 2.42741 # TIP4P Hw
257 66 1 0 19.111 6.39935 6.75539 # TIP4P Ow
258 66 3 -1.04 19.1499 6.51917 6.83681 # TIP4P Lw
259 66 2 0.52 19.2041 7.30449 6.45826 # TIP4P Hw
260 66 2 0.52 19.3219 6.43021 7.68856 # TIP4P Hw
261 67 1 0 1.43453 22.8523 7.0296 # TIP4P Ow
262 67 3 -1.04 1.5688 22.9107 6.99697 # TIP4P Lw
263 67 2 0.52 2.21223 22.8805 7.58693 # TIP4P Hw
264 67 2 0.52 1.70573 23.28 6.21734 # TIP4P Hw
265 68 1 0 24.3331 22.5423 13.43 # TIP4P Ow
266 68 3 -1.04 24.3314 22.4053 13.3691 # TIP4P Lw
267 68 2 0.52 24.1265 21.7126 13.8602 # TIP4P Hw
268 68 2 0.52 24.5268 22.3012 12.5241 # TIP4P Hw
269 69 1 0 11.6324 9.39343 17.3743 # TIP4P Ow
270 69 3 -1.04 11.6344 9.25196 17.4241 # TIP4P Lw
271 69 2 0.52 12.3954 8.86749 17.614 # TIP4P Hw
272 69 2 0.52 10.8851 8.8142 17.5236 # TIP4P Hw
273 70 1 0 3.99929 20.3603 22.4948 # TIP4P Ow
274 70 3 -1.04 4.08762 20.2539 22.5529 # TIP4P Lw
275 70 2 0.52 4.44975 20.3697 23.3393 # TIP4P Hw
276 70 2 0.52 4.23882 19.5197 22.1045 # TIP4P Hw
277 71 1 0 24.2219 7.86569 10.688 # TIP4P Ow
278 71 3 -1.04 24.3374 7.85237 10.5932 # TIP4P Lw
279 71 2 0.52 24.2739 7.324 9.90056 # TIP4P Hw
280 71 2 0.52 25.0719 8.30331 10.7349 # TIP4P Hw
281 72 1 0 6.91151 22.6469 23.332 # TIP4P Ow
282 72 3 -1.04 6.9644 22.7864 23.3472 # TIP4P Lw
283 72 2 0.52 6.50272 23.4629 23.0435 # TIP4P Hw
284 72 2 0.52 7.73346 22.921 23.7389 # TIP4P Hw
285 73 1 0 12.8907 11.0132 12.8247 # TIP4P Ow
286 73 3 -1.04 12.7506 11.0596 12.7981 # TIP4P Lw
287 73 2 0.52 12.0788 10.5186 12.9355 # TIP4P Hw
288 73 2 0.52 12.608 11.8704 12.5061 # TIP4P Hw
289 74 1 0 1.53276 21.8798 23.011 # TIP4P Ow
290 74 3 -1.04 1.6242 21.9091 22.8958 # TIP4P Lw
291 74 2 0.52 1.32645 22.3531 22.205 # TIP4P Hw
292 74 2 0.52 2.45341 21.6353 22.9168 # TIP4P Hw
293 75 1 0 15.598 9.46583 3.86961 # TIP4P Ow
294 75 3 -1.04 15.6243 9.53718 3.74032 # TIP4P Lw
295 75 2 0.52 15.2577 9.24988 3.00142 # TIP4P Hw
296 75 2 0.52 16.144 10.2391 3.72779 # TIP4P Hw
297 76 1 0 14.7826 9.79146 9.15971 # TIP4P Ow
298 76 3 -1.04 14.7981 9.80701 9.01133 # TIP4P Lw
299 76 2 0.52 14.4653 10.5074 8.60929 # TIP4P Hw
300 76 2 0.52 15.221 9.19694 8.551 # TIP4P Hw
301 77 1 0 8.98004 17.599 21.0309 # TIP4P Ow
302 77 3 -1.04 9.0317 17.6277 20.893 # TIP4P Lw
303 77 2 0.52 9.02431 18.4453 20.5857 # TIP4P Hw
304 77 2 0.52 9.33932 16.9763 20.3989 # TIP4P Hw
305 78 1 0 21.0381 18.6468 23.6526 # TIP4P Ow
306 78 3 -1.04 21.1205 18.6144 23.5315 # TIP4P Lw
307 78 2 0.52 21.1222 17.8025 23.2093 # TIP4P Hw
308 78 2 0.52 21.598 19.2385 23.15 # TIP4P Hw
309 79 1 0 17.5478 19.6715 5.38986 # TIP4P Ow
310 79 3 -1.04 17.5183 19.7438 5.26181 # TIP4P Lw
311 79 2 0.52 17.6311 19.3386 4.49628 # TIP4P Hw
312 79 2 0.52 17.2341 20.5695 5.28317 # TIP4P Hw
313 80 1 0 12.009 22.9743 4.3927 # TIP4P Ow
314 80 3 -1.04 12.0762 23.0995 4.44097 # TIP4P Lw
315 80 2 0.52 12.368 23.6875 3.86482 # TIP4P Hw
316 80 2 0.52 12.175 23.2385 5.29763 # TIP4P Hw
317 81 1 0 24.4052 11.6079 6.82352 # TIP4P Ow
318 81 3 -1.04 24.4736 11.7321 6.77464 # TIP4P Lw
319 81 2 0.52 24.1433 12.1739 6.09738 # TIP4P Hw
320 81 2 0.52 25.2015 12.0123 7.16782 # TIP4P Hw
321 82 1 0 4.88782 7.01103 9.08892 # TIP4P Ow
322 82 3 -1.04 4.76863 6.92524 9.1195 # TIP4P Lw
323 82 2 0.52 4.29362 7.07858 9.83631 # TIP4P Hw
324 82 2 0.52 4.55099 6.27332 8.58044 # TIP4P Hw
325 83 1 0 27.1316 2.65011 10.0257 # TIP4P Ow
326 83 3 -1.04 27.1228 2.67945 10.1726 # TIP4P Lw
327 83 2 0.52 26.7087 3.39692 10.4495 # TIP4P Hw
328 83 2 0.52 27.4855 2.13252 10.749 # TIP4P Hw
329 84 1 0 2.64724 13.8267 1.58401 # TIP4P Ow
330 84 3 -1.04 2.61733 13.7904 1.44157 # TIP4P Lw
331 84 2 0.52 1.83748 13.4582 1.23088 # TIP4P Hw
332 84 2 0.52 3.22333 13.9121 0.824374 # TIP4P Hw
333 85 1 0 2.22403 9.71529 11.2469 # TIP4P Ow
334 85 3 -1.04 2.28624 9.8063 11.1452 # TIP4P Lw
335 85 2 0.52 3.10843 10.0814 11.2514 # TIP4P Hw
336 85 2 0.52 1.82559 10.0601 10.4478 # TIP4P Hw
337 86 1 0 3.40057 10.9156 25.0622 # TIP4P Ow
338 86 3 -1.04 3.27147 10.8918 25.1348 # TIP4P Lw
339 86 2 0.52 3.19038 11.1327 25.9704 # TIP4P Hw
340 86 2 0.52 2.60226 10.5126 24.7208 # TIP4P Hw
341 87 1 0 14.8341 20.6989 20.227 # TIP4P Ow
342 87 3 -1.04 14.9793 20.692 20.2641 # TIP4P Lw
343 87 2 0.52 15.2269 20.249 20.975 # TIP4P Hw
344 87 2 0.52 15.5755 21.0946 19.7687 # TIP4P Hw
345 88 1 0 24.3465 18.0437 0.625763 # TIP4P Ow
346 88 3 -1.04 24.2203 18.0515 0.706449 # TIP4P Lw
347 88 2 0.52 24.2343 18.4065 1.50438 # TIP4P Hw
348 88 2 0.52 23.4729 17.7416 0.377442 # TIP4P Hw
349 89 1 0 12.5426 17.3014 14.1039 # TIP4P Ow
350 89 3 -1.04 12.5776 17.1876 14.0127 # TIP4P Lw
351 89 2 0.52 12.8225 17.3483 13.1898 # TIP4P Hw
352 89 2 0.52 12.5366 16.3657 14.3054 # TIP4P Hw
353 90 1 0 20.4571 17.3116 0.179738 # TIP4P Ow
354 90 3 -1.04 20.5271 17.4426 0.158512 # TIP4P Lw
355 90 2 0.52 20.6303 17.7555 -0.650421 # TIP4P Hw
356 90 2 0.52 20.8303 17.8909 0.844086 # TIP4P Hw
357 91 1 0 0.364682 14.4739 6.65292 # TIP4P Ow
358 91 3 -1.04 0.476625 14.5663 6.61509 # TIP4P Lw
359 91 2 0.52 1.19025 14.2491 6.22382 # TIP4P Hw
360 91 2 0.52 0.413578 15.4204 6.78646 # TIP4P Hw
361 92 1 0 6.0972 19.5584 19.142 # TIP4P Ow
362 92 3 -1.04 6.00368 19.672 19.1714 # TIP4P Lw
363 92 2 0.52 6.32116 20.439 19.4431 # TIP4P Hw
364 92 2 0.52 5.14271 19.5648 19.0703 # TIP4P Hw
365 93 1 0 19.0306 16.3477 7.12547 # TIP4P Ow
366 93 3 -1.04 18.8866 16.32 7.09438 # TIP4P Lw
367 93 2 0.52 18.2594 16.7931 7.47616 # TIP4P Hw
368 93 2 0.52 18.6763 15.6856 6.53193 # TIP4P Hw
369 94 1 0 8.64178 2.63685 14.2899 # TIP4P Ow
370 94 3 -1.04 8.49445 2.61788 14.3107 # TIP4P Lw
371 94 2 0.52 8.03466 3.21956 14.746 # TIP4P Hw
372 94 2 0.52 8.09796 1.90594 13.9962 # TIP4P Hw
373 95 1 0 24.9951 23.9477 16.1311 # TIP4P Ow
374 95 3 -1.04 24.9037 24.0172 16.0346 # TIP4P Lw
375 95 2 0.52 24.5155 23.5634 15.3972 # TIP4P Hw
376 95 2 0.52 24.7603 24.8754 16.1118 # TIP4P Hw
377 96 1 0 3.38539 24.4705 5.04038 # TIP4P Ow
378 96 3 -1.04 3.46432 24.4567 4.91357 # TIP4P Lw
379 96 2 0.52 3.14722 23.9825 4.25213 # TIP4P Hw
380 96 2 0.52 4.24012 24.8509 4.83802 # TIP4P Hw
381 97 1 0 25.1469 22.0422 8.93063 # TIP4P Ow
382 97 3 -1.04 25.2897 22.0298 8.8864 # TIP4P Lw
383 97 2 0.52 25.7954 21.3992 9.21738 # TIP4P Hw
384 97 2 0.52 25.6139 22.5885 8.29836 # TIP4P Hw
385 98 1 0 6.30872 14.956 5.77789 # TIP4P Ow
386 98 3 -1.04 6.3682 14.8902 5.89887 # TIP4P Lw
387 98 2 0.52 5.84896 14.6162 6.54563 # TIP4P Hw
388 98 2 0.52 7.23311 14.782 5.95523 # TIP4P Hw
389 99 1 0 11.1973 3.3598 9.80674 # TIP4P Ow
390 99 3 -1.04 11.2492 3.47447 9.88837 # TIP4P Lw
391 99 2 0.52 12.107 3.63646 9.91701 # TIP4P Hw
392 99 2 0.52 10.6926 3.97889 10.3342 # TIP4P Hw
393 100 1 0 20.8681 10.873 12.2894 # TIP4P Ow
394 100 3 -1.04 20.9211 10.7399 12.3339 # TIP4P Lw
395 100 2 0.52 20.5582 10.0039 12.0347 # TIP4P Hw
396 100 2 0.52 21.5921 10.7027 12.8919 # TIP4P Hw
397 101 1 0 15.0401 7.76483 1.05454 # TIP4P Ow
398 101 3 -1.04 15.0233 7.66941 0.940022 # TIP4P Lw
399 101 2 0.52 15.5733 7.70131 0.262195 # TIP4P Hw
400 101 2 0.52 14.3761 7.08296 0.952276 # TIP4P Hw
401 102 1 0 9.65928 0.746702 10.1378 # TIP4P Ow
402 102 3 -1.04 9.76392 0.84644 10.0977 # TIP4P Lw
403 102 2 0.52 9.5663 1.69669 10.0663 # TIP4P Hw
404 102 2 0.52 10.5697 0.575839 9.8964 # TIP4P Hw
405 103 1 0 4.23516 16.0892 18.125 # TIP4P Ow
406 103 3 -1.04 4.34546 16.1862 18.0947 # TIP4P Lw
407 103 2 0.52 4.99298 16.3035 18.6691 # TIP4P Hw
408 103 2 0.52 4.339 16.6328 17.344 # TIP4P Hw
409 104 1 0 10.8005 22.4251 9.63521 # TIP4P Ow
410 104 3 -1.04 10.7175 22.5499 9.64092 # TIP4P Lw
411 104 2 0.52 9.88686 22.5335 9.37115 # TIP4P Hw
412 104 2 0.52 11.0655 23.2915 9.94392 # TIP4P Hw
413 105 1 0 1.01816 19.786 15.2205 # TIP4P Ow
414 105 3 -1.04 1.07302 19.6825 15.1267 # TIP4P Lw
415 105 2 0.52 0.698333 18.8949 15.0792 # TIP4P Hw
416 105 2 0.52 1.76658 19.8688 14.6295 # TIP4P Hw
417 106 1 0 0.364207 14.3065 15.5338 # TIP4P Ow
418 106 3 -1.04 0.320779 14.4499 15.5413 # TIP4P Lw
419 106 2 0.52 0.24134 14.8413 16.3182 # TIP4P Hw
420 106 2 0.52 0.147825 14.8918 14.808 # TIP4P Hw
421 107 1 0 21.0683 2.07996 14.2831 # TIP4P Ow
422 107 3 -1.04 20.9539 2.07887 14.38 # TIP4P Lw
423 107 2 0.52 20.1672 1.80001 14.1226 # TIP4P Hw
424 107 2 0.52 21.0754 2.3514 15.2009 # TIP4P Hw
425 108 1 0 20.0331 10.7348 17.9274 # TIP4P Ow
426 108 3 -1.04 19.9712 10.7666 17.7945 # TIP4P Lw
427 108 2 0.52 19.1353 10.5632 17.6433 # TIP4P Hw
428 108 2 0.52 20.4474 11.1545 17.1734 # TIP4P Hw
429 109 1 0 16.242 2.43353 23.9926 # TIP4P Ow
430 109 3 -1.04 16.1871 2.29428 23.9829 # TIP4P Lw
431 109 2 0.52 15.3329 2.15346 24.0988 # TIP4P Hw
432 109 2 0.52 16.7222 1.62579 23.8106 # TIP4P Hw
433 110 1 0 19.9108 15.6573 12.2241 # TIP4P Ow
434 110 3 -1.04 19.8382 15.53 12.2564 # TIP4P Lw
435 110 2 0.52 19.6457 15.3364 13.0861 # TIP4P Hw
436 110 2 0.52 19.6088 14.9842 11.6142 # TIP4P Hw
437 111 1 0 11.8939 4.14337 24.9449 # TIP4P Ow
438 111 3 -1.04 11.9725 4.20778 24.8346 # TIP4P Lw
439 111 2 0.52 11.5602 4.66426 24.2144 # TIP4P Hw
440 111 2 0.52 12.8419 4.12563 24.8137 # TIP4P Hw
441 112 1 0 23.1882 5.4181 0.670029 # TIP4P Ow
442 112 3 -1.04 23.2993 5.32146 0.698869 # TIP4P Lw
443 112 2 0.52 23.4404 4.64685 0.162253 # TIP4P Hw
444 112 2 0.52 23.8035 5.43445 1.4031 # TIP4P Hw
445 113 1 0 3.26003 14.5711 4.75572 # TIP4P Ow
446 113 3 -1.04 3.33728 14.4938 4.65297 # TIP4P Lw
447 113 2 0.52 4.21059 14.4995 4.66895 # TIP4P Hw
448 113 2 0.52 2.91291 14.0388 4.03989 # TIP4P Hw
449 114 1 0 0.318646 24.1377 11.3595 # TIP4P Ow
450 114 3 -1.04 0.409421 24.0536 11.2747 # TIP4P Lw
451 114 2 0.52 0.469911 24.207 10.4169 # TIP4P Hw
452 114 2 0.52 0.876497 23.4119 11.6394 # TIP4P Hw
453 115 1 0 4.63073 14.5664 25.6626 # TIP4P Ow
454 115 3 -1.04 4.73873 14.6367 25.5858 # TIP4P Lw
455 115 2 0.52 4.95764 14.3582 24.7874 # TIP4P Hw
456 115 2 0.52 5.14748 15.3236 25.9379 # TIP4P Hw
457 116 1 0 18.5541 5.61595 9.53114 # TIP4P Ow
458 116 3 -1.04 18.4273 5.58383 9.6045 # TIP4P Lw
459 116 2 0.52 17.7717 6.16094 9.61495 # TIP4P Hw
460 116 2 0.52 18.3457 4.82005 10.0204 # TIP4P Hw
461 117 1 0 5.02065 22.3 11.5581 # TIP4P Ow
462 117 3 -1.04 5.15173 22.369 11.5345 # TIP4P Lw
463 117 2 0.52 5.89967 21.9272 11.6261 # TIP4P Hw
464 117 2 0.52 5.16554 23.2119 11.3057 # TIP4P Hw
465 118 1 0 10.0704 23.0367 14.3752 # TIP4P Ow
466 118 3 -1.04 10.1976 23.0349 14.2957 # TIP4P Lw
467 118 2 0.52 10.7562 23.7041 14.3519 # TIP4P Hw
468 118 2 0.52 10.3782 22.3553 13.7776 # TIP4P Hw
469 119 1 0 21.0175 3.83136 6.0466 # TIP4P Ow
470 119 3 -1.04 21.1117 3.93748 5.99801 # TIP4P Lw
471 119 2 0.52 20.9737 4.7734 6.21057 # TIP4P Hw
472 119 2 0.52 21.7972 3.71832 5.50304 # TIP4P Hw
473 120 1 0 23.9607 2.31522 13.2535 # TIP4P Ow
474 120 3 -1.04 23.8408 2.2265 13.2699 # TIP4P Lw
475 120 2 0.52 23.7883 1.47827 12.8222 # TIP4P Hw
476 120 2 0.52 23.1969 2.45907 13.8122 # TIP4P Hw
477 121 1 0 2.78355 10.007 6.86333 # TIP4P Ow
478 121 3 -1.04 2.87413 9.90613 6.79906 # TIP4P Lw
479 121 2 0.52 3.71069 9.85267 7.04457 # TIP4P Hw
480 121 2 0.52 2.56398 9.37365 6.18 # TIP4P Hw
481 122 1 0 13.3024 2.25982 19.7978 # TIP4P Ow
482 122 3 -1.04 13.2971 2.24026 19.6491 # TIP4P Lw
483 122 2 0.52 12.6776 1.73449 19.2979 # TIP4P Hw
484 122 2 0.52 13.8858 2.63236 19.1366 # TIP4P Hw
485 123 1 0 14.7767 16.9733 11.7216 # TIP4P Ow
486 123 3 -1.04 14.776 17.0699 11.6069 # TIP4P Lw
487 123 2 0.52 14.5672 16.793 10.8052 # TIP4P Hw
488 123 2 0.52 14.9806 17.9083 11.7417 # TIP4P Hw
489 124 1 0 17.3208 19.7146 11.5775 # TIP4P Ow
490 124 3 -1.04 17.4578 19.6553 11.5625 # TIP4P Lw
491 124 2 0.52 18.1637 20.1648 11.6335 # TIP4P Hw
492 124 2 0.52 17.5478 18.8009 11.4048 # TIP4P Hw
493 125 1 0 22.6687 14.6699 7.26507 # TIP4P Ow
494 125 3 -1.04 22.7849 14.7469 7.20958 # TIP4P Lw
495 125 2 0.52 23.5849 14.3964 7.22037 # TIP4P Hw
496 125 2 0.52 22.6601 15.5446 6.87628 # TIP4P Hw
497 126 1 0 20.5897 20.1473 17.3709 # TIP4P Ow
498 126 3 -1.04 20.542 20.1621 17.2294 # TIP4P Lw
499 126 2 0.52 20.6257 20.9286 16.8191 # TIP4P Hw
500 126 2 0.52 20.1812 19.4815 16.8177 # TIP4P Hw
501 127 1 0 1.03127 18.0113 19.659 # TIP4P Ow
502 127 3 -1.04 0.915729 18.1068 19.6648 # TIP4P Lw
503 127 2 0.52 0.0973217 17.8017 19.6567 # TIP4P Hw
504 127 2 0.52 1.06262 18.9668 19.7066 # TIP4P Hw
505 128 1 0 3.51161 7.73909 5.56272 # TIP4P Ow
506 128 3 -1.04 3.63259 7.65661 5.59528 # TIP4P Lw
507 128 2 0.52 4.42923 7.95292 5.39397 # TIP4P Hw
508 128 2 0.52 3.53905 6.88091 5.9858 # TIP4P Hw
509 129 1 0 3.50717 18.3983 10.7295 # TIP4P Ow
510 129 3 -1.04 3.46532 18.2764 10.8063 # TIP4P Lw
511 129 2 0.52 4.04603 17.8534 11.303 # TIP4P Hw
512 129 2 0.52 2.64134 17.9911 10.7555 # TIP4P Hw
513 130 1 0 10.2186 11.8254 14.4061 # TIP4P Ow
514 130 3 -1.04 10.3155 11.859 14.5155 # TIP4P Lw
515 130 2 0.52 10.7969 11.2278 14.8802 # TIP4P Hw
516 130 2 0.52 10.3973 12.6851 14.7872 # TIP4P Hw
517 131 1 0 3.98702 17.6587 22.499 # TIP4P Ow
518 131 3 -1.04 4.07497 17.6157 22.6127 # TIP4P Lw
519 131 2 0.52 4.85063 17.2489 22.4491 # TIP4P Hw
520 131 2 0.52 3.81042 17.7328 23.4369 # TIP4P Hw
521 132 1 0 20.8689 22.41 15.675 # TIP4P Ow
522 132 3 -1.04 20.8961 22.5285 15.7629 # TIP4P Lw
523 132 2 0.52 21.6748 22.6145 16.1493 # TIP4P Hw
524 132 2 0.52 20.2759 23.1308 15.8875 # TIP4P Hw
525 133 1 0 8.75067 11.1757 4.96038 # TIP4P Ow
526 133 3 -1.04 8.73034 11.2511 4.83231 # TIP4P Lw
527 133 2 0.52 8.32923 12.027 4.84222 # TIP4P Hw
528 133 2 0.52 9.01331 10.9134 4.07808 # TIP4P Hw
529 134 1 0 8.58129 4.28055 24.6415 # TIP4P Ow
530 134 3 -1.04 8.72821 4.31076 24.6406 # TIP4P Lw
531 134 2 0.52 9.2415 3.96056 24.0267 # TIP4P Hw
532 134 2 0.52 9.0688 4.83654 25.2493 # TIP4P Hw
533 135 1 0 17.6289 22.302 15.0311 # TIP4P Ow
534 135 3 -1.04 17.6338 22.3822 14.9044 # TIP4P Lw
535 135 2 0.52 16.9478 22.8695 14.67 # TIP4P Hw
536 135 2 0.52 18.3485 22.3611 14.4027 # TIP4P Hw
537 136 1 0 11.7865 2.15935 6.23919 # TIP4P Ow
538 136 3 -1.04 11.6956 2.16783 6.12016 # TIP4P Lw
539 136 2 0.52 10.8321 2.23214 6.23481 # TIP4P Hw
540 136 2 0.52 12.0309 2.15281 5.31375 # TIP4P Hw
541 137 1 0 10.2906 2.6227 18.4729 # TIP4P Ow
542 137 3 -1.04 10.4333 2.58022 18.4914 # TIP4P Lw
543 137 2 0.52 11.0202 3.14749 18.8024 # TIP4P Hw
544 137 2 0.52 10.6756 1.76606 18.2878 # TIP4P Hw
545 138 1 0 13.1326 14.2502 11.4958 # TIP4P Ow
546 138 3 -1.04 13.1116 14.3062 11.6334 # TIP4P Lw
547 138 2 0.52 13.8 14.4981 12.1357 # TIP4P Hw
548 138 2 0.52 12.3012 14.4398 11.9305 # TIP4P Hw
549 139 1 0 10.3221 13.5815 17.4757 # TIP4P Ow
550 139 3 -1.04 10.3316 13.4947 17.5976 # TIP4P Lw
551 139 2 0.52 9.86063 12.7608 17.6478 # TIP4P Hw
552 139 2 0.52 10.8581 13.7236 18.2559 # TIP4P Hw
553 140 1 0 5.86022 1.03395 15.1302 # TIP4P Ow
554 140 3 -1.04 5.74753 0.977582 15.2116 # TIP4P Lw
555 140 2 0.52 5.52717 0.136564 15.1274 # TIP4P Hw
556 140 2 0.52 5.31295 1.49102 15.7688 # TIP4P Hw
557 141 1 0 0.042581 13.2485 10.8485 # TIP4P Ow
558 141 3 -1.04 -0.0635766 13.3514 10.874 # TIP4P Lw
559 141 2 0.52 0.154874 14.1937 10.9498 # TIP4P Hw
560 141 2 0.52 -0.898987 13.1068 10.9465 # TIP4P Hw
561 142 1 0 3.31171 19.76 13.0803 # TIP4P Ow
562 142 3 -1.04 3.38446 19.8013 12.9558 # TIP4P Lw
563 142 2 0.52 3.58808 19.2047 12.3513 # TIP4P Hw
564 142 2 0.52 3.60366 20.6385 12.8369 # TIP4P Hw
565 143 1 0 14.1119 5.29694 9.72701 # TIP4P Ow
566 143 3 -1.04 14.1073 5.4117 9.82349 # TIP4P Lw
567 143 2 0.52 14.5899 6.12474 9.67635 # TIP4P Hw
568 143 2 0.52 13.5976 5.36563 10.5313 # TIP4P Hw
569 144 1 0 6.88977 10.1238 24.2729 # TIP4P Ow
570 144 3 -1.04 6.78447 10.1922 24.1908 # TIP4P Lw
571 144 2 0.52 6.34835 10.8732 24.521 # TIP4P Hw
572 144 2 0.52 6.60865 9.9085 23.3836 # TIP4P Hw
573 145 1 0 13.021 1.02213 24.2926 # TIP4P Ow
574 145 3 -1.04 13.1133 1.00025 24.1764 # TIP4P Lw
575 145 2 0.52 12.9517 1.39082 23.412 # TIP4P Hw
576 145 2 0.52 13.8112 0.482511 24.2653 # TIP4P Hw
577 146 1 0 16.9054 15.0868 5.16633 # TIP4P Ow
578 146 3 -1.04 16.8631 15.0143 5.04196 # TIP4P Lw
579 146 2 0.52 17.3579 15.0569 4.32335 # TIP4P Hw
580 146 2 0.52 16.1228 14.5508 5.03782 # TIP4P Hw
581 147 1 0 18.3286 24.1732 18.044 # TIP4P Ow
582 147 3 -1.04 18.2377 24.0662 17.9913 # TIP4P Lw
583 147 2 0.52 17.561 24.2805 17.4823 # TIP4P Hw
584 147 2 0.52 18.3863 23.2296 18.1938 # TIP4P Hw
585 148 1 0 25.0929 5.29081 13.8647 # TIP4P Ow
586 148 3 -1.04 24.9479 5.31355 13.8339 # TIP4P Lw
587 148 2 0.52 24.5506 4.82907 13.2253 # TIP4P Hw
588 148 2 0.52 24.5024 5.93022 14.2631 # TIP4P Hw
589 149 1 0 6.5778 24.5586 4.28992 # TIP4P Ow
590 149 3 -1.04 6.66441 24.4602 4.217 # TIP4P Lw
591 149 2 0.52 6.75255 23.6467 4.52266 # TIP4P Hw
592 149 2 0.52 7.07967 24.7019 3.48754 # TIP4P Hw
593 150 1 0 3.55627 3.6461 17.2975 # TIP4P Ow
594 150 3 -1.04 3.5134 3.78546 17.2622 # TIP4P Lw
595 150 2 0.52 3.38466 4.00361 16.4263 # TIP4P Hw
596 150 2 0.52 3.39297 4.3772 17.8933 # TIP4P Hw
597 151 1 0 17.4233 16.6126 11.8178 # TIP4P Ow
598 151 3 -1.04 17.3149 16.6505 11.9143 # TIP4P Lw
599 151 2 0.52 17.5153 16.8335 12.7446 # TIP4P Hw
600 151 2 0.52 16.4848 16.6882 11.6451 # TIP4P Hw
601 152 1 0 12.5436 1.38302 17.2001 # TIP4P Ow
602 152 3 -1.04 12.4854 1.44023 17.0743 # TIP4P Lw
603 152 2 0.52 12.1322 2.23907 17.0812 # TIP4P Hw
604 152 2 0.52 12.5006 0.973932 16.3358 # TIP4P Hw
605 153 1 0 8.3877 25.2612 2.19418 # TIP4P Ow
606 153 3 -1.04 8.52471 25.2722 2.13412 # TIP4P Lw
607 153 2 0.52 9.10583 24.6311 2.25323 # TIP4P Hw
608 153 2 0.52 8.73984 25.9776 1.66601 # TIP4P Hw
609 154 1 0 2.20743 23.8971 21.0403 # TIP4P Ow
610 154 3 -1.04 2.12603 23.9712 20.9384 # TIP4P Lw