# LAMMPS data file written by WriteLammpsdata function in RASPA(written by Zhao Li)
2484 atoms
0 bonds
0 angles
0 dihedrals
0 impropers
0 40.044 xlo xhi
0 39.798 ylo yhi
0 26.766 zlo zhi
0 0 0 xy xz yz

10 atom types
0 bond types
0 angle types
0 dihedral types
0 improper types

Masses

1 0 # H
2 0 # N
3 0 # C
4 0 # Zn
5 0 # O
6 0 # Si
7 0 # CH4_sp3
8 0 # CH3_sp3
9 0 # C_co2
10 0 # O_co2

Pair Coeffs

1 0.153146 2.57 # H
2 0.240165 3.26 # N
3 0.365435 3.43 # C
4 0.431563 2.46 # Zn
5 0.366611 3.3 # O
6 0.152178 2.3 # Si
7 1.02374 3.73 # CH4_sp3
8 0.677884 3.75 # CH3_sp3
9 0.207052 2.745 # C_co2
10 0.592602 3.017 # O_co2

Atoms

1 1 6 2.05 8.45689 1.12429 8.88658 # Si
2 1 6 2.05 18.4679 8.82521 11.1879 # Si
3 1 6 2.05 11.5651 11.0738 4.49642 # Si
4 1 6 2.05 1.55411 18.7747 2.19508 # Si
5 1 6 2.05 11.5651 18.7747 4.49642 # Si
6 1 6 2.05 1.55411 11.0738 2.19508 # Si
7 1 6 2.05 8.45689 8.82521 8.88658 # Si
8 1 6 2.05 18.4679 1.12429 11.1879 # Si
9 1 6 2.05 6.14996 0.5516 10.8496 # Si
10 1 6 2.05 16.161 9.3979 9.2249 # Si
11 1 6 2.05 13.872 10.5011 2.5334 # Si
12 1 6 2.05 3.86104 19.3474 4.1581 # Si
13 1 6 2.05 13.872 19.3474 2.5334 # Si
14 1 6 2.05 3.86104 10.5011 4.1581 # Si
15 1 6 2.05 6.14996 9.3979 10.8496 # Si
16 1 6 2.05 16.161 0.5516 9.2249 # Si
17 1 6 2.05 5.58834 1.21921 0.41755 # Si
18 1 6 2.05 15.5993 8.73029 6.27395 # Si
19 1 6 2.05 14.4337 11.1687 12.9655 # Si
20 1 6 2.05 4.42266 18.6798 7.10905 # Si
21 1 6 2.05 14.4337 18.6798 12.9655 # Si
22 1 6 2.05 4.42266 11.1687 7.10905 # Si
23 1 6 2.05 5.58834 8.73029 0.41755 # Si
24 1 6 2.05 15.5993 1.21921 6.27395 # Si
25 1 6 2.05 2.44569 1.25324 0.357326 # Si
26 1 6 2.05 12.4567 8.69626 6.33417 # Si
27 1 6 2.05 17.5763 11.2027 13.0257 # Si
28 1 6 2.05 7.56531 18.6458 7.04883 # Si
29 1 6 2.05 17.5763 18.6458 13.0257 # Si
30 1 6 2.05 7.56531 11.2027 7.04883 # Si
31 1 6 2.05 2.44569 8.69626 0.357326 # Si
32 1 6 2.05 12.4567 1.25324 6.33417 # Si
33 1 6 2.05 1.42717 0.541651 10.9003 # Si
34 1 6 2.05 11.4382 9.40785 9.17418 # Si
35 1 6 2.05 18.5948 10.4912 2.48268 # Si
36 1 6 2.05 8.58383 19.3573 4.20882 # Si
37 1 6 2.05 18.5948 19.3573 2.48268 # Si
38 1 6 2.05 8.58383 10.4912 4.20882 # Si
39 1 6 2.05 1.42717 9.40785 10.9003 # Si
40 1 6 2.05 11.4382 0.541651 9.17418 # Si
41 1 6 2.05 3.7323 1.17325 8.99097 # Si
42 1 6 2.05 13.7433 8.77625 11.0835 # Si
43 1 6 2.05 16.2897 11.1227 4.39203 # Si
44 1 6 2.05 6.2787 18.7258 2.29947 # Si
45 1 6 2.05 16.2897 18.7258 4.39203 # Si
46 1 6 2.05 6.2787 11.1227 2.29947 # Si
47 1 6 2.05 3.7323 8.77625 8.99097 # Si
48 1 6 2.05 13.7433 1.17325 11.0835 # Si
49 1 6 2.05 8.4623 16.4664 9.00435 # Si
50 1 6 2.05 18.4733 13.3821 11.0701 # Si
51 1 6 2.05 11.5597 6.51692 4.37865 # Si
52 1 6 2.05 1.5487 3.43258 2.31285 # Si
53 1 6 2.05 11.5597 3.43258 4.37865 # Si
54 1 6 2.05 1.5487 6.51692 2.31285 # Si
55 1 6 2.05 8.4623 13.3821 9.00435 # Si
56 1 6 2.05 18.4733 16.4664 11.0701 # Si
57 1 6 2.05 6.16237 17.3089 10.9007 # Si
58 1 6 2.05 16.1734 12.5396 9.17378 # Si
59 1 6 2.05 13.8596 7.35945 2.48228 # Si
60 1 6 2.05 3.84863 2.59005 4.20922 # Si
61 1 6 2.05 13.8596 2.59005 2.48228 # Si
62 1 6 2.05 3.84863 7.35945 4.20922 # Si
63 1 6 2.05 6.16237 12.5396 10.9007 # Si
64 1 6 2.05 16.1734 17.3089 9.17378 # Si
65 1 6 2.05 5.51686 16.4607 0.416077 # Si
66 1 6 2.05 15.5279 13.3878 6.27542 # Si
67 1 6 2.05 14.5051 6.51115 12.9669 # Si
68 1 6 2.05 4.49414 3.43835 7.10758 # Si
69 1 6 2.05 14.5051 3.43835 12.9669 # Si
70 1 6 2.05 4.49414 6.51115 7.10758 # Si
71 1 6 2.05 5.51686 13.3878 0.416077 # Si
72 1 6 2.05 15.5279 16.4607 6.27542 # Si
73 1 6 2.05 2.41425 16.4545 0.39868 # Si
74 1 6 2.05 12.4253 13.394 6.29282 # Si
75 1 6 2.05 17.6077 6.50498 12.9843 # Si
76 1 6 2.05 7.59675 3.44452 7.09018 # Si
77 1 6 2.05 17.6077 3.44452 12.9843 # Si
78 1 6 2.05 7.59675 6.50498 7.09018 # Si
79 1 6 2.05 2.41425 13.394 0.39868 # Si
80 1 6 2.05 12.4253 16.4545 6.29282 # Si
81 1 6 2.05 1.41035 17.3048 10.9473 # Si
82 1 6 2.05 11.4213 12.5437 9.12721 # Si
83 1 6 2.05 18.6117 7.35527 2.43571 # Si
84 1 6 2.05 8.60065 2.59423 4.25579 # Si
85 1 6 2.05 18.6117 2.59423 2.43571 # Si
86 1 6 2.05 8.60065 7.35527 4.25579 # Si
87 1 6 2.05 1.41035 12.5437 10.9473 # Si
88 1 6 2.05 11.4213 17.3048 9.12721 # Si
89 1 6 2.05 3.74532 16.4511 9.10941 # Si
90 1 6 2.05 13.7563 13.3974 10.9651 # Si
91 1 6 2.05 16.2767 6.5016 4.27359 # Si
92 1 6 2.05 6.26568 3.4479 2.41791 # Si
93 1 6 2.05 16.2767 3.4479 4.27359 # Si
94 1 6 2.05 6.26568 6.5016 2.41791 # Si
95 1 6 2.05 3.74532 13.3974 9.10941 # Si
96 1 6 2.05 13.7563 16.4511 10.9651 # Si
97 1 6 2.05 8.45689 1.12429 22.2696 # Si
98 1 6 2.05 18.4679 8.82521 24.5709 # Si
99 1 6 2.05 11.5651 11.0738 17.8794 # Si
100 1 6 2.05 1.55411 18.7747 15.5781 # Si
101 1 6 2.05 11.5651 18.7747 17.8794 # Si
102 1 6 2.05 1.55411 11.0738 15.5781 # Si
103 1 6 2.05 8.45689 8.82521 22.2696 # Si
104 1 6 2.05 18.4679 1.12429 24.5709 # Si
105 1 6 2.05 6.14996 0.5516 24.2326 # Si
106 1 6 2.05 16.161 9.3979 22.6079 # Si
107 1 6 2.05 13.872 10.5011 15.9164 # Si
108 1 6 2.05 3.86104 19.3474 17.5411 # Si
109 1 6 2.05 13.872 19.3474 15.9164 # Si
110 1 6 2.05 3.86104 10.5011 17.5411 # Si
111 1 6 2.05 6.14996 9.3979 24.2326 # Si
112 1 6 2.05 16.161 0.5516 22.6079 # Si
113 1 6 2.05 5.58834 1.21921 13.8005 # Si
114 1 6 2.05 15.5993 8.73029 19.657 # Si
115 1 6 2.05 14.4337 11.1687 26.3485 # Si
116 1 6 2.05 4.42266 18.6798 20.492 # Si
117 1 6 2.05 14.4337 18.6798 26.3485 # Si
118 1 6 2.05 4.42266 11.1687 20.492 # Si
119 1 6 2.05 5.58834 8.73029 13.8005 # Si
120 1 6 2.05 15.5993 1.21921 19.657 # Si
121 1 6 2.05 2.44569 1.25324 13.7403 # Si
122 1 6 2.05 12.4567 8.69626 19.7172 # Si
123 1 6 2.05 17.5763 11.2027 26.4087 # Si
124 1 6 2.05 7.56531 18.6458 20.4318 # Si
125 1 6 2.05 17.5763 18.6458 26.4087 # Si
126 1 6 2.05 7.56531 11.2027 20.4318 # Si
127 1 6 2.05 2.44569 8.69626 13.7403 # Si
128 1 6 2.05 12.4567 1.25324 19.7172 # Si
129 1 6 2.05 1.42717 0.541651 24.2833 # Si
130 1 6 2.05 11.4382 9.40785 22.5572 # Si
131 1 6 2.05 18.5948 10.4912 15.8657 # Si
132 1 6 2.05 8.58383 19.3573 17.5918 # Si
133 1 6 2.05 18.5948 19.3573 15.8657 # Si
134 1 6 2.05 8.58383 10.4912 17.5918 # Si
135 1 6 2.05 1.42717 9.40785 24.2833 # Si
136 1 6 2.05 11.4382 0.541651 22.5572 # Si
137 1 6 2.05 3.7323 1.17325 22.374 # Si
138 1 6 2.05 13.7433 8.77625 24.4665 # Si
139 1 6 2.05 16.2897 11.1227 17.775 # Si
140 1 6 2.05 6.2787 18.7258 15.6825 # Si
141 1 6 2.05 16.2897 18.7258 17.775 # Si
142 1 6 2.05 6.2787 11.1227 15.6825 # Si
143 1 6 2.05 3.7323 8.77625 22.374 # Si
144 1 6 2.05 13.7433 1.17325 24.4665 # Si
145 1 6 2.05 8.4623 16.4664 22.3874 # Si
146 1 6 2.05 18.4733 13.3821 24.4531 # Si
147 1 6 2.05 11.5597 6.51692 17.7616 # Si
148 1 6 2.05 1.5487 3.43258 15.6959 # Si
149 1 6 2.05 11.5597 3.43258 17.7616 # Si
150 1 6 2.05 1.5487 6.51692 15.6959 # Si
151 1 6 2.05 8.4623 13.3821 22.3874 # Si
152 1 6 2.05 18.4733 16.4664 24.4531 # Si
153 1 6 2.05 6.16237 17.3089 24.2837 # Si
154 1 6 2.05 16.1734 12.5396 22.5568 # Si
155 1 6 2.05 13.8596 7.35945 15.8653 # Si
156 1 6 2.05 3.84863 2.59005 17.5922 # Si
157 1 6 2.05 13.8596 2.59005 15.8653 # Si
158 1 6 2.05 3.84863 7.35945 17.5922 # Si
159 1 6 2.05 6.16237 12.5396 24.2837 # Si
160 1 6 2.05 16.1734 17.3089 22.5568 # Si
161 1 6 2.05 5.51686 16.4607 13.7991 # Si
162 1 6 2.05 15.5279 13.3878 19.6584 # Si
163 1 6 2.05 14.5051 6.51115 26.3499 # Si
164 1 6 2.05 4.49414 3.43835 20.4906 # Si
165 1 6 2.05 14.5051 3.43835 26.3499 # Si
166 1 6 2.05 4.49414 6.51115 20.4906 # Si
167 1 6 2.05 5.51686 13.3878 13.7991 # Si
168 1 6 2.05 15.5279 16.4607 19.6584 # Si
169 1 6 2.05 2.41425 16.4545 13.7817 # Si
170 1 6 2.05 12.4253 13.394 19.6758 # Si
171 1 6 2.05 17.6077 6.50498 26.3673 # Si
172 1 6 2.05 7.59675 3.44452 20.4732 # Si
173 1 6 2.05 17.6077 3.44452 26.3673 # Si
174 1 6 2.05 7.59675 6.50498 20.4732 # Si
175 1 6 2.05 2.41425 13.394 13.7817 # Si
176 1 6 2.05 12.4253 16.4545 19.6758 # Si
177 1 6 2.05 1.41035 17.3048 24.3303 # Si
178 1 6 2.05 11.4213 12.5437 22.5102 # Si
179 1 6 2.05 18.6117 7.35527 15.8187 # Si
180 1 6 2.05 8.60065 2.59423 17.6388 # Si
181 1 6 2.05 18.6117 2.59423 15.8187 # Si
182 1 6 2.05 8.60065 7.35527 17.6388 # Si
183 1 6 2.05 1.41035 12.5437 24.3303 # Si
184 1 6 2.05 11.4213 17.3048 22.5102 # Si
185 1 6 2.05 3.74532 16.4511 22.4924 # Si
186 1 6 2.05 13.7563 13.3974 24.3481 # Si
187 1 6 2.05 16.2767 6.5016 17.6566 # Si
188 1 6 2.05 6.26568 3.4479 15.8009 # Si
189 1 6 2.05 16.2767 3.4479 17.6566 # Si
190 1 6 2.05 6.26568 6.5016 15.8009 # Si
191 1 6 2.05 3.74532 13.3974 22.4924 # Si
192 1 6 2.05 13.7563 16.4511 24.3481 # Si
193 1 6 2.05 8.45689 21.0233 8.88658 # Si
194 1 6 2.05 18.4679 28.7242 11.1879 # Si
195 1 6 2.05 11.5651 30.9728 4.49642 # Si
196 1 6 2.05 1.55411 38.6737 2.19508 # Si
197 1 6 2.05 11.5651 38.6737 4.49642 # Si
198 1 6 2.05 1.55411 30.9728 2.19508 # Si
199 1 6 2.05 8.45689 28.7242 8.88658 # Si
200 1 6 2.05 18.4679 21.0233 11.1879 # Si
201 1 6 2.05 6.14996 20.4506 10.8496 # Si
202 1 6 2.05 16.161 29.2969 9.2249 # Si
203 1 6 2.05 13.872 30.4001 2.5334 # Si
204 1 6 2.05 3.86104 39.2464 4.1581 # Si
205 1 6 2.05 13.872 39.2464 2.5334 # Si
206 1 6 2.05 3.86104 30.4001 4.1581 # Si
207 1 6 2.05 6.14996 29.2969 10.8496 # Si
208 1 6 2.05 16.161 20.4506 9.2249 # Si
209 1 6 2.05 5.58834 21.1182 0.41755 # Si
210 1 6 2.05 15.5993 28.6293 6.27395 # Si
211 1 6 2.05 14.4337 31.0677 12.9655 # Si
212 1 6 2.05 4.42266 38.5788 7.10905 # Si
213 1 6 2.05 14.4337 38.5788 12.9655 # Si
214 1 6 2.05 4.42266 31.0677 7.10905 # Si
215 1 6 2.05 5.58834 28.6293 0.41755 # Si
216 1 6 2.05 15.5993 21.1182 6.27395 # Si
217 1 6 2.05 2.44569 21.1522 0.357326 # Si
218 1 6 2.05 12.4567 28.5953 6.33417 # Si
219 1 6 2.05 17.5763 31.1017 13.0257 # Si
220 1 6 2.05 7.56531 38.5448 7.04883 # Si
221 1 6 2.05 17.5763 38.5448 13.0257 # Si
222 1 6 2.05 7.56531 31.1017 7.04883 # Si
223 1 6 2.05 2.44569 28.5953 0.357326 # Si
224 1 6 2.05 12.4567 21.1522 6.33417 # Si
225 1 6 2.05 1.42717 20.4407 10.9003 # Si
226 1 6 2.05 11.4382 29.3068 9.17418 # Si
227 1 6 2.05 18.5948 30.3902 2.48268 # Si
228 1 6 2.05 8.58383 39.2563 4.20882 # Si
229 1 6 2.05 18.5948 39.2563 2.48268 # Si
230 1 6 2.05 8.58383 30.3902 4.20882 # Si
231 1 6 2.05 1.42717 29.3068 10.9003 # Si
232 1 6 2.05 11.4382 20.4407 9.17418 # Si
233 1 6 2.05 3.7323 21.0722 8.99097 # Si
234 1 6 2.05 13.7433 28.6753 11.0835 # Si
235 1 6 2.05 16.2897 31.0217 4.39203 # Si
236 1 6 2.05 6.2787 38.6248 2.29947 # Si
237 1 6 2.05 16.2897 38.6248 4.39203 # Si
238 1 6 2.05 6.2787 31.0217 2.29947 # Si
239 1 6 2.05 3.7323 28.6753 8.99097 # Si
240 1 6 2.05 13.7433 21.0722 11.0835 # Si
241 1 6 2.05 8.4623 36.3654 9.00435 # Si
242 1 6 2.05 18.4733 33.2811 11.0701 # Si
243 1 6 2.05 11.5597 26.4159 4.37865 # Si
244 1 6 2.05 1.5487 23.3316 2.31285 # Si
245 1 6 2.05 11.5597 23.3316 4.37865 # Si
246 1 6 2.05 1.5487 26.4159 2.31285 # Si
247 1 6 2.05 8.4623 33.2811 9.00435 # Si
248 1 6 2.05 18.4733 36.3654 11.0701 # Si
249 1 6 2.05 6.16237 37.2079 10.9007 # Si
250 1 6 2.05 16.1734 32.4386 9.17378 # Si
251 1 6 2.05 13.8596 27.2584 2.48228 # Si
252 1 6 2.05 3.84863 22.4891 4.20922 # Si
253 1 6 2.05 13.8596 22.4891 2.48228 # Si
254 1 6 2.05 3.84863 27.2584 4.20922 # Si
255 1 6 2.05 6.16237 32.4386 10.9007 # Si
256 1 6 2.05 16.1734 37.2079 9.17378 # Si
257 1 6 2.05 5.51686 36.3597 0.416077 # Si
258 1 6 2.05 15.5279 33.2868 6.27542 # Si
259 1 6 2.05 14.5051 26.4102 12.9669 # Si
260 1 6 2.05 4.49414 23.3373 7.10758 # Si
261 1 6 2.05 14.5051 23.3373 12.9669 # Si
262 1 6 2.05 4.49414 26.4102 7.10758 # Si
263 1 6 2.05 5.51686 33.2868 0.416077 # Si
264 1 6 2.05 15.5279 36.3597 6.27542 # Si
265 1 6 2.05 2.41425 36.3535 0.39868 # Si
266 1 6 2.05 12.4253 33.293 6.29282 # Si
267 1 6 2.05 17.6077 26.404 12.9843 # Si
268 1 6 2.05 7.59675 23.3435 7.09018 # Si
269 1 6 2.05 17.6077 23.3435 12.9843 # Si
270 1 6 2.05 7.59675 26.404 7.09018 # Si
271 1 6 2.05 2.41425 33.293 0.39868 # Si
272 1 6 2.05 12.4253 36.3535 6.29282 # Si
273 1 6 2.05 1.41035 37.2038 10.9473 # Si
274 1 6 2.05 11.4213 32.4427 9.12721 # Si
275 1 6 2.05 18.6117 27.2543 2.43571 # Si
276 1 6 2.05 8.60065 22.4932 4.25579 # Si
277 1 6 2.05 18.6117 22.4932 2.43571 # Si
278 1 6 2.05 8.60065 27.2543 4.25579 # Si
279 1 6 2.05 1.41035 32.4427 10.9473 # Si
280 1 6 2.05 11.4213 37.2038 9.12721 # Si
281 1 6 2.05 3.74532 36.3501 9.10941 # Si
282 1 6 2.05 13.7563 33.2964 10.9651 # Si
283 1 6 2.05 16.2767 26.4006 4.27359 # Si
284 1 6 2.05 6.26568 23.3469 2.41791 # Si
285 1 6 2.05 16.2767 23.3469 4.27359 # Si
286 1 6 2.05 6.26568 26.4006 2.41791 # Si
287 1 6 2.05 3.74532 33.2964 9.10941 # Si
288 1 6 2.05 13.7563 36.3501 10.9651 # Si
289 1 6 2.05 8.45689 21.0233 22.2696 # Si
290 1 6 2.05 18.4679 28.7242 24.5709 # Si
291 1 6 2.05 11.5651 30.9728 17.8794 # Si
292 1 6 2.05 1.55411 38.6737 15.5781 # Si
293 1 6 2.05 11.5651 38.6737 17.8794 # Si
294 1 6 2.05 1.55411 30.9728 15.5781 # Si
295 1 6 2.05 8.45689 28.7242 22.2696 # Si
296 1 6 2.05 18.4679 21.0233 24.5709 # Si
297 1 6 2.05 6.14996 20.4506 24.2326 # Si
298 1 6 2.05 16.161 29.2969 22.6079 # Si
299 1 6 2.05 13.872 30.4001 15.9164 # Si
300 1 6 2.05 3.86104 39.2464 17.5411 # Si
301 1 6 2.05 13.872 39.2464 15.9164 # Si
302 1 6 2.05 3.86104 30.4001 17.5411 # Si
303 1 6 2.05 6.14996 29.2969 24.2326 # Si
304 1 6 2.05 16.161 20.4506 22.6079 # Si
305 1 6 2.05 5.58834 21.1182 13.8005 # Si
306 1 6 2.05 15.5993 28.6293 19.657 # Si
307 1 6 2.05 14.4337 31.0677 26.3485 # Si
308 1 6 2.05 4.42266 38.5788 20.492 # Si
309 1 6 2.05 14.4337 38.5788 26.3485 # Si
310 1 6 2.05 4.42266 31.0677 20.492 # Si
311 1 6 2.05 5.58834 28.6293 13.8005 # Si
312 1 6 2.05 15.5993 21.1182 19.657 # Si
313 1 6 2.05 2.44569 21.1522 13.7403 # Si
314 1 6 2.05 12.4567 28.5953 19.7172 # Si
315 1 6 2.05 17.5763 31.1017 26.4087 # Si
316 1 6 2.05 7.56531 38.5448 20.4318 # Si
317 1 6 2.05 17.5763 38.5448 26.4087 # Si
318 1 6 2.05 7.56531 31.1017 20.4318 # Si
319 1 6 2.05 2.44569 28.5953 13.7403 # Si
320 1 6 2.05 12.4567 21.1522 19.7172 # Si
321 1 6 2.05 1.42717 20.4407 24.2833 # Si
322 1 6 2.05 11.4382 29.3068 22.5572 # Si
323 1 6 2.05 18.5948 30.3902 15.8657 # Si
324 1 6 2.05 8.58383 39.2563 17.5918 # Si
325 1 6 2.05 18.5948 39.2563 15.8657 # Si
326 1 6 2.05 8.58383 30.3902 17.5918 # Si
327 1 6 2.05 1.42717 29.3068 24.2833 # Si
328 1 6 2.05 11.4382 20.4407 22.5572 # Si
329 1 6 2.05 3.7323 21.0722 22.374 # Si
330 1 6 2.05 13.7433 28.6753 24.4665 # Si
331 1 6 2.05 16.2897 31.0217 17.775 # Si
332 1 6 2.05 6.2787 38.6248 15.6825 # Si
333 1 6 2.05 16.2897 38.6248 17.775 # Si
334 1 6 2.05 6.2787 31.0217 15.6825 # Si
335 1 6 2.05 3.7323 28.6753 22.374 # Si
336 1 6 2.05 13.7433 21.0722 24.4665 # Si
337 1 6 2.05 8.4623 36.3654 22.3874 # Si
338 1 6 2.05 18.4733 33.2811 24.4531 # Si
339 1 6 2.05 11.5597 26.4159 17.7616 # Si
340 1 6 2.05 1.5487 23.3316 15.6959 # Si
341 1 6 2.05 11.5597 23.3316 17.7616 # Si
342 1 6 2.05 1.5487 26.4159 15.6959 # Si
343 1 6 2.05 8.4623 33.2811 22.3874 # Si
344 1 6 2.05 18.4733 36.3654 24.4531 # Si
345 1 6 2.05 6.16237 37.2079 24.2837 # Si
346 1 6 2.05 16.1734 32.4386 22.5568 # Si
347 1 6 2.05 13.8596 27.2584 15.8653 # Si
348 1 6 2.05 3.84863 22.4891 17.5922 # Si
349 1 6 2.05 13.8596 22.4891 15.8653 # Si
350 1 6 2.05 3.84863 27.2584 17.5922 # Si
351 1 6 2.05 6.16237 32.4386 24.2837 # Si
352 1 6 2.05 16.1734 37.2079 22.5568 # Si
353 1 6 2.05 5.51686 36.3597 13.7991 # Si
354 1 6 2.05 15.5279 33.2868 19.6584 # Si
355 1 6 2.05 14.5051 26.4102 26.3499 # Si
356 1 6 2.05 4.49414 23.3373 20.4906 # Si
357 1 6 2.05 14.5051 23.3373 26.3499 # Si
358 1 6 2.05 4.49414 26.4102 20.4906 # Si
359 1 6 2.05 5.51686 33.2868 13.7991 # Si
360 1 6 2.05 15.5279 36.3597 19.6584 # Si
361 1 6 2.05 2.41425 36.3535 13.7817 # Si
362 1 6 2.05 12.4253 33.293 19.6758 # Si
363 1 6 2.05 17.6077 26.404 26.3673 # Si
364 1 6 2.05 7.59675 23.3435 20.4732 # Si
365 1 6 2.05 17.6077 23.3435 26.3673 # Si
366 1 6 2.05 7.59675 26.404 20.4732 # Si
367 1 6 2.05 2.41425 33.293 13.7817 # Si
368 1 6 2.05 12.4253 36.3535 19.6758 # Si
369 1 6 2.05 1.41035 37.2038 24.3303 # Si
370 1 6 2.05 11.4213 32.4427 22.5102 # Si
371 1 6 2.05 18.6117 27.2543 15.8187 # Si
372 1 6 2.05 8.60065 22.4932 17.6388 # Si
373 1 6 2.05 18.6117 22.4932 15.8187 # Si
374 1 6 2.05 8.60065 27.2543 17.6388 # Si
375 1 6 2.05 1.41035 32.4427 24.3303 # Si
376 1 6 2.05 11.4213 37.2038 22.5102 # Si
377 1 6 2.05 3.74532 36.3501 22.4924 # Si
378 1 6 2.05 13.7563 33.2964 24.3481 # Si
379 1 6 2.05 16.2767 26.4006 17.6566 # Si
380 1 6 2.05 6.26568 23.3469 15.8009 # Si
381 1 6 2.05 16.2767 23.3469 17.6566 # Si
382 1 6 2.05 6.26568 26.4006 15.8009 # Si
383 1 6 2.05 3.74532 33.2964 22.4924 # Si
384 1 6 2.05 13.7563 36.3501 24.3481 # Si
385 1 6 2.05 28.4789 1.12429 8.88658 # Si
386 1 6 2.05 38.4899 8.82521 11.1879 # Si
387 1 6 2.05 31.5871 11.0738 4.49642 # Si
388 1 6 2.05 21.5761 18.7747 2.19508 # Si
389 1 6 2.05 31.5871 18.7747 4.49642 # Si
390 1 6 2.05 21.5761 11.0738 2.19508 # Si
391 1 6 2.05 28.4789 8.82521 8.88658 # Si
392 1 6 2.05 38.4899 1.12429 11.1879 # Si
393 1 6 2.05 26.172 0.5516 10.8496 # Si
394 1 6 2.05 36.183 9.3979 9.2249 # Si
395 1 6 2.05 33.894 10.5011 2.5334 # Si
396 1 6 2.05 23.883 19.3474 4.1581 # Si
397 1 6 2.05 33.894 19.3474 2.5334 # Si
398 1 6 2.05 23.883 10.5011 4.1581 # Si
399 1 6 2.05 26.172 9.3979 10.8496 # Si
400 1 6 2.05 36.183 0.5516 9.2249 # Si
401 1 6 2.05 25.6103 1.21921 0.41755 # Si
402 1 6 2.05 35.6213 8.73029 6.27395 # Si
403 1 6 2.05 34.4557 11.1687 12.9655 # Si
404 1 6 2.05 24.4447 18.6798 7.10905 # Si
405 1 6 2.05 34.4557 18.6798 12.9655 # Si
406 1 6 2.05 24.4447 11.1687 7.10905 # Si
407 1 6 2.05 25.6103 8.73029 0.41755 # Si
408 1 6 2.05 35.6213 1.21921 6.27395 # Si
409 1 6 2.05 22.4677 1.25324 0.357326 # Si
410 1 6 2.05 32.4787 8.69626 6.33417 # Si
411 1 6 2.05 37.5983 11.2027 13.0257 # Si
412 1 6 2.05 27.5873 18.6458 7.04883 # Si
413 1 6 2.05 37.5983 18.6458 13.0257 # Si
414 1 6 2.05 27.5873 11.2027 7.04883 # Si
415 1 6 2.05 22.4677 8.69626 0.357326 # Si
416 1 6 2.05 32.4787 1.25324 6.33417 # Si
417 1 6 2.05 21.4492 0.541651 10.9003 # Si
418 1 6 2.05 31.4602 9.40785 9.17418 # Si
419 1 6 2.05 38.6168 10.4912 2.48268 # Si
420 1 6 2.05 28.6058 19.3573 4.20882 # Si
421 1 6 2.05 38.6168 19.3573 2.48268 # Si
422 1 6 2.05 28.6058 10.4912 4.20882 # Si
423 1 6 2.05 21.4492 9.40785 10.9003 # Si
424 1 6 2.05 31.4602 0.541651 9.17418 # Si
425 1 6 2.05 23.7543 1.17325 8.99097 # Si
426 1 6 2.05 33.7653 8.77625 11.0835 # Si
427 1 6 2.05 36.3117 11.1227 4.39203 # Si
428 1 6 2.05 26.3007 18.7258 2.29947 # Si
429 1 6 2.05 36.3117 18.7258 4.39203 # Si
430 1 6 2.05 26.3007 11.1227 2.29947 # Si
431 1 6 2.05 23.7543 8.77625 8.99097 # Si
432 1 6 2.05 33.7653 1.17325 11.0835 # Si
433 1 6 2.05 28.4843 16.4664 9.00435 # Si
434 1 6 2.05 38.4953 13.3821 11.0701 # Si
435 1 6 2.05 31.5817 6.51692 4.37865 # Si
436 1 6 2.05 21.5707 3.43258 2.31285 # Si
437 1 6 2.05 31.5817 3.43258 4.37865 # Si
438 1 6 2.05 21.5707 6.51692 2.31285 # Si
439 1 6 2.05 28.4843 13.3821 9.00435 # Si
440 1 6 2.05 38.4953 16.4664 11.0701 # Si
441 1 6 2.05 26.1844 17.3089 10.9007 # Si
442 1 6 2.05 36.1954 12.5396 9.17378 # Si
443 1 6 2.05 33.8816 7.35945 2.48228 # Si
444 1 6 2.05 23.8706 2.59005 4.20922 # Si
445 1 6 2.05 33.8816 2.59005 2.48228 # Si
446 1 6 2.05 23.8706 7.35945 4.20922 # Si
447 1 6 2.05 26.1844 12.5396 10.9007 # Si
448 1 6 2.05 36.1954 17.3089 9.17378 # Si
449 1 6 2.05 25.5389 16.4607 0.416077 # Si
450 1 6 2.05 35.5499 13.3878 6.27542 # Si
451 1 6 2.05 34.5271 6.51115 12.9669 # Si
452 1 6 2.05 24.5161 3.43835 7.10758 # Si
453 1 6 2.05 34.5271 3.43835 12.9669 # Si
454 1 6 2.05 24.5161 6.51115 7.10758 # Si
455 1 6 2.05 25.5389 13.3878 0.416077 # Si
456 1 6 2.05 35.5499 16.4607 6.27542 # Si
457 1 6 2.05 22.4363 16.4545 0.39868 # Si
458 1 6 2.05 32.4473 13.394 6.29282 # Si
459 1 6 2.05 37.6297 6.50498 12.9843 # Si
460 1 6 2.05 27.6187 3.44452 7.09018 # Si
461 1 6 2.05 37.6297 3.44452 12.9843 # Si
462 1 6 2.05 27.6187 6.50498 7.09018 # Si
463 1 6 2.05 22.4363 13.394 0.39868 # Si
464 1 6 2.05 32.4473 16.4545 6.29282 # Si
465 1 6 2.05 21.4323 17.3048 10.9473 # Si
466 1 6 2.05 31.4433 12.5437 9.12721 # Si
467 1 6 2.05 38.6337 7.35527 2.43571 # Si
468 1 6 2.05 28.6227 2.59423 4.25579 # Si
469 1 6 2.05 38.6337 2.59423 2.43571 # Si
470 1 6 2.05 28.6227 7.35527 4.25579 # Si
471 1 6 2.05 21.4323 12.5437 10.9473 # Si
472 1 6 2.05 31.4433 17.3048 9.12721 # Si
473 1 6 2.05 23.7673 16.4511 9.10941 # Si
474 1 6 2.05 33.7783 13.3974 10.9651 # Si
475 1 6 2.05 36.2987 6.5016 4.27359 # Si
476 1 6 2.05 26.2877 3.4479 2.41791 # Si
477 1 6 2.05 36.2987 3.4479 4.27359 # Si
478 1 6 2.05 26.2877 6.5016 2.41791 # Si
479 1 6 2.05 23.7673 13.3974 9.10941 # Si
480 1 6 2.05 33.7783 16.4511 10.9651 # Si
481 1 6 2.05 28.4789 1.12429 22.2696 # Si
482 1 6 2.05 38.4899 8.82521 24.5709 # Si
483 1 6 2.05 31.5871 11.0738 17.8794 # Si
484 1 6 2.05 21.5761 18.7747 15.5781 # Si
485 1 6 2.05 31.5871 18.7747 17.8794 # Si
486 1 6 2.05 21.5761 11.0738 15.5781 # Si
487 1 6 2.05 28.4789 8.82521 22.2696 # Si
488 1 6 2.05 38.4899 1.12429 24.5709 # Si
489 1 6 2.05 26.172 0.5516 24.2326 # Si
490 1 6 2.05 36.183 9.3979 22.6079 # Si
491 1 6 2.05 33.894 10.5011 15.9164 # Si
492 1 6 2.05 23.883 19.3474 17.5411 # Si
493 1 6 2.05 33.894 19.3474 15.9164 # Si
494 1 6 2.05 23.883 10.5011 17.5411 # Si
495 1 6 2.05 26.172 9.3979 24.2326 # Si
496 1 6 2.05 36.183 0.5516 22.6079 # Si
497 1 6 2.05 25.6103 1.21921 13.8005 # Si
498 1 6 2.05 35.6213 8.73029 19.657 # Si
499 1 6 2.05 34.4557 11.1687 26.3485 # Si
500 1 6 2.05 24.4447 18.6798 20.492 # Si
501 1 6 2.05 34.4557 18.6798 26.3485 # Si
502 1 6 2.05 24.4447 11.1687 20.492 # Si
503 1 6 2.05 25.6103 8.73029 13.8005 # Si
504 1 6 2.05 35.6213 1.21921 19.657 # Si
505 1 6 2.05 22.4677 1.25324 13.7403 # Si
506 1 6 2.05 32.4787 8.69626 19.7172 # Si
507 1 6 2.05 37.5983 11.2027 26.4087 # Si
508 1 6 2.05 27.5873 18.6458 20.4318 # Si
509 1 6 2.05 37.5983 18.6458 26.4087 # Si
510 1 6 2.05 27.5873 11.2027 20.4318 # Si
511 1 6 2.05 22.4677 8.69626 13.7403 # Si
512 1 6 2.05 32.4787 1.25324 19.7172 # Si
513 1 6 2.05 21.4492 0.541651 24.2833 # Si
514 1 6 2.05 31.4602 9.40785 22.5572 # Si
515 1 6 2.05 38.6168 10.4912 15.8657 # Si
516 1 6 2.05 28.6058 19.3573 17.5918 # Si
517 1 6 2.05 38.6168 19.3573 15.8657 # Si
518 1 6 2.05 28.6058 10.4912 17.5918 # Si
519 1 6 2.05 21.4492 9.40785 24.2833 # Si
520 1 6 2.05 31.4602 0.541651 22.5572 # Si
521 1 6 2.05 23.7543 1.17325 22.374 # Si
522 1 6 2.05 33.7653 8.77625 24.4665 # Si
523 1 6 2.05 36.3117 11.1227 17.775 # Si
524 1 6 2.05 26.3007 18.7258 15.6825 # Si
525 1 6 2.05 36.3117 18.7258 17.775 # Si
526 1 6 2.05 26.3007 11.1227 15.6825 # Si
527 1 6 2.05 23.7543 8.77625 22.374 # Si
528 1 6 2.05 33.7653 1.17325 24.4665 # Si
529 1 6 2.05 28.4843 16.4664 22.3874 # Si
530 1 6 2.05 38.4953 13.3821 24.4531 # Si
531 1 6 2.05 31.5817 6.51692 17.7616 # Si
532 1 6 2.05 21.5707 3.43258 15.6959 # Si
533 1 6 2.05 31.5817 3.43258 17.7616 # Si
534 1 6 2.05 21.5707 6.51692 15.6959 # Si
535 1 6 2.05 28.4843 13.3821 22.3874 # Si
536 1 6 2.05 38.4953 16.4664 24.4531 # Si
537 1 6 2.05 26.1844 17.3089 24.2837 # Si
538 1 6 2.05 36.1954 12.5396 22.5568 # Si
539 1 6 2.05 33.8816 7.35945 15.8653 # Si
540 1 6 2.05 23.8706 2.59005 17.5922 # Si
541 1 6 2.05 33.8816 2.59005 15.8653 # Si
542 1 6 2.05 23.8706 7.35945 17.5922 # Si
543 1 6 2.05 26.1844 12.5396 24.2837 # Si
544 1 6 2.05 36.1954 17.3089 22.5568 # Si
545 1 6 2.05 25.5389 16.4607 13.7991 # Si
546 1 6 2.05 35.5499 13.3878 19.6584 # Si
547 1 6 2.05 34.5271 6.51115 26.3499 # Si
548 1 6 2.05 24.5161 3.43835 20.4906 # Si
549 1 6 2.05 34.5271 3.43835 26.3499 # Si
550 1 6 2.05 24.5161 6.51115 20.4906 # Si
551 1 6 2.05 25.5389 13.3878 13.7991 # Si
552 1 6 2.05 35.5499 16.4607 19.6584 # Si
553 1 6 2.05 22.4363 16.4545 13.7817 # Si
554 1 6 2.05 32.4473 13.394 19.6758 # Si
555 1 6 2.05 37.6297 6.50498 26.3673 # Si
556 1 6 2.05 27.6187 3.44452 20.4732 # Si
557 1 6 2.05 37.6297 3.44452 26.3673 # Si
558 1 6 2.05 27.6187 6.50498 20.4732 # Si
559 1 6 2.05 22.4363 13.394 13.7817 # Si
560 1 6 2.05 32.4473 16.4545 19.6758 # Si
561 1 6 2.05 21.4323 17.3048 24.3303 # Si
562 1 6 2.05 31.4433 12.5437 22.5102 # Si
563 1 6 2.05 38.6337 7.35527 15.8187 # Si
564 1 6 2.05 28.6227 2.59423 17.6388 # Si
565 1 6 2.05 38.6337 2.59423 15.8187 # Si
566 1 6 2.05 28.6227 7.35527 17.6388 # Si
567 1 6 2.05 21.4323 12.5437 24.3303 # Si
568 1 6 2.05 31.4433 17.3048 22.5102 # Si
569 1 6 2.05 23.7673 16.4511 22.4924 # Si
570 1 6 2.05 33.7783 13.3974 24.3481 # Si
571 1 6 2.05 36.2987 6.5016 17.6566 # Si
572 1 6 2.05 26.2877 3.4479 15.8009 # Si
573 1 6 2.05 36.2987 3.4479 17.6566 # Si
574 1 6 2.05 26.2877 6.5016 15.8009 # Si
575 1 6 2.05 23.7673 13.3974 22.4924 # Si
576 1 6 2.05 33.7783 16.4511 24.3481 # Si
577 1 6 2.05 28.4789 21.0233 8.88658 # Si
578 1 6 2.05 38.4899 28.7242 11.1879 # Si
579 1 6 2.05 31.5871 30.9728 4.49642 # Si
580 1 6 2.05 21.5761 38.6737 2.19508 # Si
581 1 6 2.05 31.5871 38.6737 4.49642 # Si
582 1 6 2.05 21.5761 30.9728 2.19508 # Si
583 1 6 2.05 28.4789 28.7242 8.88658 # Si
584 1 6 2.05 38.4899 21.0233 11.1879 # Si
585 1 6 2.05 26.172 20.4506 10.8496 # Si
586 1 6 2.05 36.183 29.2969 9.2249 # Si
587 1 6 2.05 33.894 30.4001 2.5334 # Si
588 1 6 2.05 23.883 39.2464 4.1581 # Si
589 1 6 2.05 33.894 39.2464 2.5334 # Si
590 1 6 2.05 23.883 30.4001 4.1581 # Si
591 1 6 2.05 26.172 29.2969 10.8496 # Si
592 1 6 2.05 36.183 20.4506 9.2249 # Si
593 1 6 2.05 25.6103 21.1182 0.41755 # Si
594 1 6 2.05 35.6213 28.6293 6.27395 # Si
595 1 6 2.05 34.4557 31.0677 12.9655 # Si
596 1 6 2.05 24.4447 38.5788 7.10905 # Si
597 1 6 2.05 34.4557 38.5788 12.9655 # Si
598 1 6 2.05 24.4447 31.0677 7.10905 # Si
599 1 6 2.05 25.6103 28.6293 0.41755 # Si
600 1 6 2.05 35.6213 21.1182 6.27395 # Si
601 1 6 2.05 22.4677 21.1522 0.357326 # Si
602 1 6 2.05 32.4787 28.5953 6.33417 # Si
603 1 6 2.05 37.5983 31.1017 13.0257 # Si
604 1 6 2.05 27.5873 38.5448 7.04883 # Si
605 1 6 2.05 37.5983 38.5448 13.0257 # Si
606 1 6 2.05 27.5873 31.1017 7.04883 # Si
607 1 6 2.05 22.4677 28.5953 0.357326 # Si
608 1 6 2.05 32.4787 21.1522 6.33417 # Si
609 1 6 2.05 21.4492 20.4407 10.9003 # Si
610 1 6 2.05 31.4602 29.3068 9.17418 # Si
611 1 6 2.05 38.6168 30.3902 2.48268 # Si
612 1 6 2.05 28.6058 39.2563 4.20882 # Si
613 1 6 2.05 38.6168 39.2563 2.48268 # Si
614 1 6 2.05 28.6058 30.3902 4.20882 # Si
615 1 6 2.05 21.4492 29.3068 10.9003 # Si
616 1 6 2.05 31.4602 20.4407 9.17418 # Si
617 1 6 2.05 23.7543 21.0722 8.99097 # Si
618 1 6 2.05 33.7653 28.6753 11.0835 # Si
619 1 6 2.05 36.3117 31.0217 4.39203 # Si
620 1 6 2.05 26.3007 38.6248 2.29947 # Si
621 1 6 2.05 36.3117 38.6248 4.39203 # Si
622 1 6 2.05 26.3007 31.0217 2.29947 # Si
623 1 6 2.05 23.7543 28.6753 8.99097 # Si
624 1 6 2.05 33.7653 21.0722 11.0835 # Si
625 1 6 2.05 28.4843 36.3654 9.00435 # Si
626 1 6 2.05 38.4953 33.2811 11.0701 # Si
627 1 6 2.05 31.5817 26.4159 4.37865 # Si
628 1 6 2.05 21.5707 23.3316 2.31285 # Si
629 1 6 2.05 31.5817 23.3316 4.37865 # Si
630 1 6 2.05 21.5707 26.4159 2.31285 # Si
631 1 6 2.05 28.4843 33.2811 9.00435 # Si
632 1 6 2.05 38.4953 36.3654 11.0701 # Si
633 1 6 2.05 26.1844 37.2079 10.9007 # Si
634 1 6 2.05 36.1954 32.4386 9.17378 # Si
635 1 6 2.05 33.8816 27.2584 2.48228 # Si
636 1 6 2.05 23.8706 22.4891 4.20922 # Si
637 1 6 2.05 33.8816 22.4891 2.48228 # Si
638 1 6 2.05 23.8706 27.2584 4.20922 # Si
639 1 6 2.05 26.1844 32.4386 10.9007 # Si
640 1 6 2.05 36.1954 37.2079 9.17378 # Si
641 1 6 2.05 25.5389 36.3597 0.416077 # Si
642 1 6 2.05 35.5499 33.2868 6.27542 # Si
643 1 6 2.05 34.5271 26.4102 12.9669 # Si
644 1 6 2.05 24.5161 23.3373 7.10758 # Si
645 1 6 2.05 34.5271 23.3373 12.9669 # Si
646 1 6 2.05 24.5161 26.4102 7.10758 # Si
647 1 6 2.05 25.5389 33.2868 0.416077 # Si
648 1 6 2.05 35.5499 36.3597 6.27542 # Si
649 1 6 2.05 22.4363 36.3535 0.39868 # Si
650 1 6 2.05 32.4473 33.293 6.29282 # Si
651 1 6 2.05 37.6297 26.404 12.9843 # Si
652 1 6 2.05 27.6187 23.3435 7.09018 # Si
653 1 6 2.05 37.6297 23.3435 12.9843 # Si
654 1 6 2.05 27.6187 26.404 7.09018 # Si
655 1 6 2.05 22.4363 33.293 0.39868 # Si
656 1 6 2.05 32.4473 36.3535 6.29282 # Si
657 1 6 2.05 21.4323 37.2038 10.9473 # Si
658 1 6 2.05 31.4433 32.4427 9.12721 # Si
659 1 6 2.05 38.6337 27.2543 2.43571 # Si
660 1 6 2.05 28.6227 22.4932 4.25579 # Si
661 1 6 2.05 38.6337 22.4932 2.43571 # Si
662 1 6 2.05 28.6227 27.2543 4.25579 # Si
663 1 6 2.05 21.4323 32.4427 10.9473 # Si
664 1 6 2.05 31.4433 37.2038 9.12721 # Si
665 1 6 2.05 23.7673 36.3501 9.10941 # Si
666 1 6 2.05 33.7783 33.2964 10.9651 # Si
667 1 6 2.05 36.2987 26.4006 4.27359 # Si
668 1 6 2.05 26.2877 23.3469 2.41791 # Si
669 1 6 2.05 36.2987 23.3469 4.27359 # Si
670 1 6 2.05 26.2877 26.4006 2.41791 # Si
671 1 6 2.05 23.7673 33.2964 9.10941 # Si
672 1 6 2.05 33.7783 36.3501 10.9651 # Si
673 1 6 2.05 28.4789 21.0233 22.2696 # Si
674 1 6 2.05 38.4899 28.7242 24.5709 # Si
675 1 6 2.05 31.5871 30.9728 17.8794 # Si
676 1 6 2.05 21.5761 38.6737 15.5781 # Si
677 1 6 2.05 31.5871 38.6737 17.8794 # Si
678 1 6 2.05 21.5761 30.9728 15.5781 # Si
679 1 6 2.05 28.4789 28.7242 22.2696 # Si
680 1 6 2.05 38.4899 21.0233 24.5709 # Si
681 1 6 2.05 26.172 20.4506 24.2326 # Si
682 1 6 2.05 36.183 29.2969 22.6079 # Si
683 1 6 2.05 33.894 30.4001 15.9164 # Si
684 1 6 2.05 23.883 39.2464 17.5411 # Si
685 1 6 2.05 33.894 39.2464 15.9164 # Si
686 1 6 2.05 23.883 30.4001 17.5411 # Si
687 1 6 2.05 26.172 29.2969 24.2326 # Si
688 1 6 2.05 36.183 20.4506 22.6079 # Si
689 1 6 2.05 25.6103 21.1182 13.8005 # Si
690 1 6 2.05 35.6213 28.6293 19.657 # Si
691 1 6 2.05 34.4557 31.0677 26.3485 # Si
692 1 6 2.05 24.4447 38.5788 20.492 # Si
693 1 6 2.05 34.4557 38.5788 26.3485 # Si
694 1 6 2.05 24.4447 31.0677 20.492 # Si
695 1 6 2.05 25.6103 28.6293 13.8005 # Si
696 1 6 2.05 35.6213 21.1182 19.657 # Si
697 1 6 2.05 22.4677 21.1522 13.7403 # Si
698 1 6 2.05 32.4787 28.5953 19.7172 # Si
699 1 6 2.05 37.5983 31.1017 26.4087 # Si
700 1 6 2.05 27.5873 38.5448 20.4318 # Si
701 1 6 2.05 37.5983 38.5448 26.4087 # Si
702 1 6 2.05 27.5873 31.1017 20.4318 # Si
703 1 6 2.05 22.4677 28.5953 13.7403 # Si
704 1 6 2.05 32.4787 21.1522 19.7172 # Si
705 1 6 2.05 21.4492 20.4407 24.2833 # Si