# LAMMPS data file written by WriteLammpsdata function in RASPA(written by Zhao Li)
1200 atoms
0 bonds
0 angles
0 dihedrals
0 impropers
0 30 xlo xhi
0 28.9778 ylo yhi
0 29.5151 zlo zhi
7.76457 -2.61467 -4.69262 xy xz yz

2 atom types
0 bond types
0 angle types
0 dihedral types
0 improper types

Masses

1 0 # O_spce
2 0 # H_spce

Pair Coeffs

1 0.155136 3.16556 # O_spce
2 0 0 # H_spce

Atoms

1 2 1 -0.8476 -7.02475 11.2471 -7.96675 # O_spce
2 2 2 0.4238 -7.68955 11.8587 -7.53787 # H_spce
3 2 2 0.4238 -7.46932 10.7336 -8.70068 # H_spce
4 3 1 -0.8476 -12.1064 -2.77155 -13.772 # O_spce
5 3 2 0.4238 -12.547 -3.01267 -14.6367 # H_spce
6 3 2 0.4238 -12.698 -3.0375 -13.0109 # H_spce
7 4 1 -0.8476 -9.03386 0.792057 3.10127 # O_spce
8 4 2 0.4238 -8.296 1.41369 3.36419 # H_spce
9 4 2 0.4238 -8.97119 0.59531 2.12282 # H_spce
10 5 1 -0.8476 1.30048 8.10465 10.0178 # O_spce
11 5 2 0.4238 2.05532 8.5146 9.50576 # H_spce
12 5 2 0.4238 0.522311 8.73266 10.0244 # H_spce
13 6 1 -0.8476 11.4586 -3.26955 -9.57558 # O_spce
14 6 2 0.4238 12.2981 -3.65582 -9.19341 # H_spce
15 6 2 0.4238 10.9481 -3.98621 -10.0508 # H_spce
16 7 1 -0.8476 -15.8576 -10.9469 -12.2076 # O_spce
17 7 2 0.4238 -15.3134 -11.2822 -11.4385 # H_spce
18 7 2 0.4238 -15.8225 -9.94779 -12.2303 # H_spce
19 8 1 -0.8476 8.26453 -7.40907 -7.57485 # O_spce
20 8 2 0.4238 8.10409 -6.50475 -7.17929 # H_spce
21 8 2 0.4238 7.59948 -8.0576 -7.20456 # H_spce
22 9 1 -0.8476 -4.91663 9.67733 -9.76859 # O_spce
23 9 2 0.4238 -4.81924 8.69352 -9.91905 # H_spce
24 9 2 0.4238 -4.49667 10.1739 -10.5282 # H_spce
25 10 1 -0.8476 11.4962 3.44425 10.1177 # O_spce
26 10 2 0.4238 11.0836 3.89766 9.32765 # H_spce
27 10 2 0.4238 10.9929 3.69318 10.9452 # H_spce
28 11 1 -0.8476 -1.34531 -9.24854 -6.8984 # O_spce
29 11 2 0.4238 -1.68931 -9.57421 -6.01772 # H_spce
30 11 2 0.4238 -1.2482 -10.0219 -7.52491 # H_spce
31 12 1 -0.8476 -4.31273 -4.2381 -2.12954 # O_spce
32 12 2 0.4238 -4.07271 -5.11463 -1.71228 # H_spce
33 12 2 0.4238 -5.21281 -4.30895 -2.55945 # H_spce
34 13 1 -0.8476 12.0459 0.531768 13.8523 # O_spce
35 13 2 0.4238 11.4275 -0.0153908 13.2882 # H_spce
36 13 2 0.4238 12.6559 1.06018 13.2619 # H_spce
37 14 1 -0.8476 -2.10741 9.63055 4.93788 # O_spce
38 14 2 0.4238 -2.6095 9.08781 4.26457 # H_spce
39 14 2 0.4238 -2.5794 10.4999 5.08408 # H_spce
40 15 1 -0.8476 -8.53198 -10.3756 -7.0556 # O_spce
41 15 2 0.4238 -8.07683 -9.91352 -6.29444 # H_spce
42 15 2 0.4238 -9.51059 -10.4493 -6.86356 # H_spce
43 16 1 -0.8476 4.54275 -10.0093 -0.737976 # O_spce
44 16 2 0.4238 4.91653 -10.5939 -1.45813 # H_spce
45 16 2 0.4238 4.92219 -10.2847 0.145313 # H_spce
46 17 1 -0.8476 7.85891 -13.7598 0.778209 # O_spce
47 17 2 0.4238 7.05367 -13.9478 1.34054 # H_spce
48 17 2 0.4238 7.97887 -14.4952 0.111297 # H_spce
49 18 1 -0.8476 -13.973 -2.70438 10.0911 # O_spce
50 18 2 0.4238 -14.4216 -2.17411 10.8106 # H_spce
51 18 2 0.4238 -13.0586 -2.33506 9.92579 # H_spce
52 19 1 -0.8476 -11.3519 -11.232 2.15244 # O_spce
53 19 2 0.4238 -11.5636 -10.4127 2.68517 # H_spce
54 19 2 0.4238 -12.1094 -11.881 2.22391 # H_spce
55 20 1 -0.8476 -0.615519 8.37413 1.67139 # O_spce
56 20 2 0.4238 -1.60154 8.26098 1.54904 # H_spce
57 20 2 0.4238 -0.254357 8.95844 0.944647 # H_spce
58 21 1 -0.8476 -12.1195 -1.67868 -3.74883 # O_spce
59 21 2 0.4238 -11.7636 -1.21749 -2.93604 # H_spce
60 21 2 0.4238 -12.7292 -1.05929 -4.2434 # H_spce
61 22 1 -0.8476 9.79325 0.116355 -0.281101 # O_spce
62 22 2 0.4238 9.13867 0.362603 0.433662 # H_spce
63 22 2 0.4238 9.96912 -0.867483 -0.247421 # H_spce
64 23 1 -0.8476 -6.48778 -12.1418 6.23075 # O_spce
65 23 2 0.4238 -7.05221 -12.2581 7.04799 # H_spce
66 23 2 0.4238 -5.56641 -12.4866 6.41017 # H_spce
67 24 1 -0.8476 -1.9338 14.0956 -9.59191 # O_spce
68 24 2 0.4238 -1.70145 13.2078 -9.98919 # H_spce
69 24 2 0.4238 -2.00679 14.7776 -10.3196 # H_spce
70 25 1 -0.8476 1.55226 14.7571 -2.62728 # O_spce
71 25 2 0.4238 0.585771 14.5141 -2.71009 # H_spce
72 25 2 0.4238 1.98874 14.6987 -3.5251 # H_spce
73 26 1 -0.8476 10.0076 -13.0685 14.5564 # O_spce
74 26 2 0.4238 9.26275 -13.7196 14.7024 # H_spce
75 26 2 0.4238 10.7113 -13.4899 13.9843 # H_spce
76 27 1 -0.8476 -8.78937 9.81918 -2.80289 # O_spce
77 27 2 0.4238 -8.62541 10.7688 -2.5357 # H_spce
78 27 2 0.4238 -9.61193 9.76961 -3.3694 # H_spce
79 28 1 -0.8476 12.6474 -1.14425 6.88304 # O_spce
80 28 2 0.4238 12.4785 -1.56564 7.77405 # H_spce
81 28 2 0.4238 13.0525 -0.239358 7.01373 # H_spce
82 29 1 -0.8476 5.55088 -6.87667 -6.37733 # O_spce
83 29 2 0.4238 5.42085 -7.21396 -5.44495 # H_spce
84 29 2 0.4238 5.14484 -7.52164 -7.02476 # H_spce
85 30 1 -0.8476 4.71732 -8.61506 -8.28337 # O_spce
86 30 2 0.4238 3.72609 -8.50577 -8.35765 # H_spce
87 30 2 0.4238 4.99313 -9.46647 -8.72951 # H_spce
88 31 1 -0.8476 -8.80923 -1.6238 -9.37384 # O_spce
89 31 2 0.4238 -8.75618 -0.626461 -9.32387 # H_spce
90 31 2 0.4238 -8.04253 -2.02394 -8.87178 # H_spce
91 32 1 -0.8476 -13.4294 -6.11389 2.65083 # O_spce
92 32 2 0.4238 -14.1021 -5.59168 2.1266 # H_spce
93 32 2 0.4238 -12.5807 -6.18492 2.12682 # H_spce
94 33 1 -0.8476 -4.64328 -10.3165 5.69966 # O_spce
95 33 2 0.4238 -5.36226 -10.8042 5.20447 # H_spce
96 33 2 0.4238 -4.85594 -10.3117 6.67677 # H_spce
97 34 1 -0.8476 -0.175941 -3.52817 8.96348 # O_spce
98 34 2 0.4238 -0.160589 -3.94123 8.0529 # H_spce
99 34 2 0.4238 -1.12376 -3.39571 9.25346 # H_spce
100 35 1 -0.8476 17.1126 13.5279 3.3173 # O_spce
101 35 2 0.4238 17.2148 12.8351 2.60348 # H_spce
102 35 2 0.4238 9.86441 -14.6318 3.06421 # H_spce
103 36 1 -0.8476 -16.3906 -5.70006 13.1697 # O_spce
104 36 2 0.4238 12.6971 -5.33659 13.3582 # H_spce
105 36 2 0.4238 -15.8973 -5.06858 12.5715 # H_spce
106 37 1 -0.8476 1.92984 -10.7113 6.03347 # O_spce
107 37 2 0.4238 2.27859 -9.83133 5.7108 # H_spce
108 37 2 0.4238 1.53084 -11.2133 5.26616 # H_spce
109 38 1 -0.8476 -9.11759 -0.00852643 -3.5233 # O_spce
110 38 2 0.4238 -8.96416 0.382753 -2.61591 # H_spce
111 38 2 0.4238 -10.0104 0.283952 -3.86578 # H_spce
112 39 1 -0.8476 -0.364058 0.984338 4.98881 # O_spce
113 39 2 0.4238 -0.543491 1.01968 5.97194 # H_spce
114 39 2 0.4238 -1.13573 0.549597 4.52457 # H_spce
115 40 1 -0.8476 1.51349 -1.22207 10.5135 # O_spce
116 40 2 0.4238 0.545217 -1.44742 10.6215 # H_spce
117 40 2 0.4238 1.79107 -0.589204 11.2363 # H_spce
118 41 1 -0.8476 -6.34914 -11.6944 -11.3936 # O_spce
119 41 2 0.4238 -6.88832 -10.8795 -11.6063 # H_spce
120 41 2 0.4238 -6.01044 -11.6342 -10.4546 # H_spce
121 42 1 -0.8476 8.33485 -4.86722 6.83836 # O_spce
122 42 2 0.4238 9.08046 -5.48312 6.58394 # H_spce
123 42 2 0.4238 7.47428 -5.37616 6.85849 # H_spce
124 43 1 -0.8476 14.9445 1.05772 -1.34076 # O_spce
125 43 2 0.4238 -14.6766 0.994109 -0.417515 # H_spce
126 43 2 0.4238 -14.3245 1.27769 -1.98665 # H_spce
127 44 1 -0.8476 6.58141 13.54 3.13344 # O_spce
128 44 2 0.4238 5.75155 13.1078 3.48632 # H_spce
129 44 2 0.4238 -1.40702 -14.5334 2.77018 # H_spce
130 45 1 -0.8476 -8.86058 -9.09857 3.82118 # O_spce
131 45 2 0.4238 -9.81375 -9.37077 3.95299 # H_spce
132 45 2 0.4238 -8.61611 -9.19719 2.85656 # H_spce
133 46 1 -0.8476 2.91461 13.5562 1.25513 # O_spce
134 46 2 0.4238 3.43495 13.2171 0.47139 # H_spce
135 46 2 0.4238 2.31742 14.3024 0.961029 # H_spce
136 47 1 -0.8476 -10.9814 -11.8152 10.2196 # O_spce
137 47 2 0.4238 -10.0155 -12.0115 10.3888 # H_spce
138 47 2 0.4238 -11.4468 -11.6571 11.0905 # H_spce
139 48 1 -0.8476 10.3615 13.9842 -13.8069 # O_spce
140 48 2 0.4238 10.131 14.861 -13.3848 # H_spce
141 48 2 0.4238 11.3198 13.7669 -13.6218 # H_spce
142 49 1 -0.8476 3.91184 -4.51571 3.0381 # O_spce
143 49 2 0.4238 4.77076 -4.11395 3.35567 # H_spce
144 49 2 0.4238 3.76189 -4.26815 2.0809 # H_spce
145 50 1 -0.8476 -14.4094 -6.55992 -13.1007 # O_spce
146 50 2 0.4238 -14.2855 -6.81511 -14.0596 # H_spce
147 50 2 0.4238 -14.7443 -5.61922 -13.0468 # H_spce
148 51 1 -0.8476 1.89842 -2.93364 -1.59811 # O_spce
149 51 2 0.4238 1.82672 -3.93085 -1.61875 # H_spce
150 51 2 0.4238 0.983157 -2.53276 -1.63801 # H_spce
151 52 1 -0.8476 -10.1578 -2.15471 -0.396055 # O_spce
152 52 2 0.4238 -9.29359 -1.70162 -0.614611 # H_spce
153 52 2 0.4238 -10.7868 -2.06314 -1.16812 # H_spce
154 53 1 -0.8476 -10.5566 -2.84566 -10.6815 # O_spce
155 53 2 0.4238 -10.1371 -3.59548 -11.1931 # H_spce
156 53 2 0.4238 -9.91718 -2.51784 -9.98601 # H_spce
157 54 1 -0.8476 -13.0297 -3.45232 -5.80529 # O_spce
158 54 2 0.4238 -13.1314 -2.70215 -6.45865 # H_spce
159 54 2 0.4238 -12.7872 -3.08255 -4.90835 # H_spce
160 55 1 -0.8476 -3.07785 0.401145 -11.7079 # O_spce
161 55 2 0.4238 -2.32508 0.581992 -12.3409 # H_spce
162 55 2 0.4238 -3.948 0.47451 -12.1952 # H_spce
163 56 1 -0.8476 -1.66262 7.84272 12.9624 # O_spce
164 56 2 0.4238 -1.99904 8.37053 12.1825 # H_spce
165 56 2 0.4238 -1.10062 8.43002 13.5449 # H_spce
166 57 1 -0.8476 -2.07548 2.54802 10.5317 # O_spce
167 57 2 0.4238 -2.53601 3.26791 10.0124 # H_spce
168 57 2 0.4238 -1.42844 2.96119 11.1725 # H_spce
169 58 1 -0.8476 -3.23785 -15.2232 8.49538 # O_spce
170 58 2 0.4238 -3.80021 -14.7103 9.14396 # H_spce
171 58 2 0.4238 -2.27737 -14.9723 8.61577 # H_spce
172 59 1 -0.8476 5.03755 -9.27182 12.1079 # O_spce
173 59 2 0.4238 5.12635 -10.2603 12.2303 # H_spce
174 59 2 0.4238 5.90868 -8.89541 11.7925 # H_spce
175 60 1 -0.8476 2.63642 -8.5856 4.72907 # O_spce
176 60 2 0.4238 2.99806 -7.69836 5.01544 # H_spce
177 60 2 0.4238 2.02371 -8.45971 3.94885 # H_spce
178 61 1 -0.8476 -10.075 11.706 12.3765 # O_spce
179 61 2 0.4238 -18.1129 -16.4951 12.944 # H_spce
180 61 2 0.4238 -9.91241 12.0181 11.4405 # H_spce
181 62 1 -0.8476 -5.95555 12.2627 12.9499 # O_spce
182 62 2 0.4238 -14.1967 -16.0751 13.5527 # H_spce
183 62 2 0.4238 -6.5973 11.9007 12.2738 # H_spce
184 63 1 -0.8476 -5.85254 -5.67161 0.17088 # O_spce
185 63 2 0.4238 -6.82996 -5.60078 -0.028192 # H_spce
186 63 2 0.4238 -5.70271 -5.5516 1.15228 # H_spce
187 64 1 -0.8476 11.5153 13.7075 0.901277 # O_spce
188 64 2 0.4238 11.0497 14.1148 1.68695 # H_spce
189 64 2 0.4238 10.8403 13.4536 0.208592 # H_spce
190 65 1 -0.8476 8.21175 5.09131 -14.6343 # O_spce
191 65 2 0.4238 7.90696 4.22899 -14.2299 # H_spce
192 65 2 0.4238 9.20933 5.14557 -14.5909 # H_spce
193 66 1 -0.8476 -10.5027 -7.88443 -2.44446 # O_spce
194 66 2 0.4238 -10.6928 -7.11116 -3.04937 # H_spce
195 66 2 0.4238 -11.2598 -8.53618 -2.48862 # H_spce
196 67 1 -0.8476 -2.3449 2.80945 4.3384 # O_spce
197 67 2 0.4238 -2.63549 3.5848 4.89911 # H_spce
198 67 2 0.4238 -1.39539 2.94131 4.05372 # H_spce
199 68 1 -0.8476 -5.92885 1.73435 -6.39775 # O_spce
200 68 2 0.4238 -5.40991 2.48549 -5.98974 # H_spce
201 68 2 0.4238 -6.05898 1.91051 -7.37348 # H_spce
202 69 1 -0.8476 12.1745 -6.62355 -5.09998 # O_spce
203 69 2 0.4238 11.3235 -6.10139 -5.04312 # H_spce
204 69 2 0.4238 11.9899 -7.51843 -5.50635 # H_spce
205 70 1 -0.8476 10.4783 -6.41162 7.39653 # O_spce
206 70 2 0.4238 11.0424 -7.19922 7.64447 # H_spce
207 70 2 0.4238 10.8879 -5.57822 7.76752 # H_spce
208 71 1 -0.8476 14.162 -2.12426 -7.18063 # O_spce
209 71 2 0.4238 -15.4166 -3.02762 -7.26071 # H_spce
210 71 2 0.4238 14.1567 -1.67843 -8.07573 # H_spce
211 72 1 -0.8476 -10.3177 9.03066 9.28563 # O_spce
212 72 2 0.4238 -10.7383 9.26878 8.41017 # H_spce
213 72 2 0.4238 -10.5947 8.1063 9.54799 # H_spce
214 73 1 -0.8476 -13.7618 -11.5029 -5.21529 # O_spce
215 73 2 0.4238 -12.9276 -12.0525 -5.26046 # H_spce
216 73 2 0.4238 -13.525 -10.5544 -5.00471 # H_spce
217 74 1 -0.8476 -3.17618 13.3918 6.10663 # O_spce
218 74 2 0.4238 -10.564 -14.6713 5.9604 # H_spce
219 74 2 0.4238 -4.15931 13.4032 5.92406 # H_spce
220 75 1 -0.8476 -4.94129 10.9374 0.572689 # O_spce
221 75 2 0.4238 -4.47602 11.1693 -0.281549 # H_spce
222 75 2 0.4238 -4.94721 11.7347 1.17617 # H_spce
223 76 1 -0.8476 -3.90032 -5.29385 10.0884 # O_spce
224 76 2 0.4238 -3.21464 -4.87957 10.6869 # H_spce
225 76 2 0.4238 -3.50707 -5.43722 9.18022 # H_spce
226 77 1 -0.8476 10.4339 -14.1008 7.96664 # O_spce
227 77 2 0.4238 9.54864 -14.4462 8.27815 # H_spce
228 77 2 0.4238 10.4027 -13.9465 6.9791 # H_spce
229 78 1 -0.8476 8.76619 12.9149 -4.77712 # O_spce
230 78 2 0.4238 8.86413 13.8935 -4.59656 # H_spce
231 78 2 0.4238 8.6922 12.4218 -3.9103 # H_spce
232 79 1 -0.8476 6.37767 13.0622 0.427403 # O_spce
233 79 2 0.4238 5.43892 12.8404 0.163673 # H_spce
234 79 2 0.4238 6.62786 12.5381 1.24149 # H_spce
235 80 1 -0.8476 7.83413 -15.2507 5.61404 # O_spce
236 80 2 0.4238 16.0162 13.6723 4.70701 # H_spce
237 80 2 0.4238 7.04226 -14.6409 5.5802 # H_spce
238 81 1 -0.8476 2.3181 8.41349 7.51328 # O_spce
239 81 2 0.4238 2.26249 8.96812 6.68304 # H_spce
240 81 2 0.4238 1.45391 7.92898 7.64897 # H_spce
241 82 1 -0.8476 6.48455 -15.7191 8.76099 # O_spce
242 82 2 0.4238 5.53092 -15.4508 8.62465 # H_spce
243 82 2 0.4238 14.5956 12.8252 7.92909 # H_spce
244 83 1 -0.8476 2.38345 -5.39775 -9.52258 # O_spce
245 83 2 0.4238 2.42898 -4.77095 -10.3004 # H_spce
246 83 2 0.4238 2.64326 -4.91239 -8.68775 # H_spce
247 84 1 -0.8476 -2.00189 2.22234 13.6756 # O_spce
248 84 2 0.4238 -2.79544 2.76101 13.9586 # H_spce
249 84 2 0.4238 -1.1929 2.80954 13.6485 # H_spce
250 85 1 -0.8476 -4.85115 -1.91874 7.75407 # O_spce
251 85 2 0.4238 -3.86009 -2.05164 7.76609 # H_spce
252 85 2 0.4238 -5.16824 -1.69204 8.67497 # H_spce
253 86 1 -0.8476 -0.749504 9.23522 -3.43157 # O_spce
254 86 2 0.4238 -1.03611 10.1523 -3.70863 # H_spce
255 86 2 0.4238 -1.54743 8.63361 -3.39456 # H_spce
256 87 1 -0.8476 -3.79174 7.04052 -0.540828 # O_spce
257 87 2 0.4238 -4.29342 7.73401 -0.0237388 # H_spce
258 87 2 0.4238 -2.9355 7.43125 -0.878733 # H_spce
259 88 1 -0.8476 15.6851 8.98893 13.7591 # O_spce
260 88 2 0.4238 14.7802 8.56537 13.8009 # H_spce
261 88 2 0.4238 16.2989 8.41138 13.2209 # H_spce
262 89 1 -0.8476 7.02269 5.54648 4.95255 # O_spce
263 89 2 0.4238 7.14849 5.53172 3.96061 # H_spce
264 89 2 0.4238 6.13079 5.15635 5.18126 # H_spce
265 90 1 -0.8476 -0.256971 2.08702 -6.40911 # O_spce
266 90 2 0.4238 -0.843784 2.12591 -5.60032 # H_spce
267 90 2 0.4238 0.121152 2.99482 -6.59054 # H_spce
268 91 1 -0.8476 12.0469 -10.3872 -10.0369 # O_spce
269 91 2 0.4238 12.5767 -10.8588 -10.7418 # H_spce
270 91 2 0.4238 12.5287 -9.55657 -9.75765 # H_spce
271 92 1 -0.8476 -11.5613 1.86271 -2.93435 # O_spce
272 92 2 0.4238 -11.4956 2.16499 -1.9834 # H_spce
273 92 2 0.4238 -11.4901 2.6542 -3.54137 # H_spce
274 93 1 -0.8476 -5.45911 -1.80098 -2.05487 # O_spce
275 93 2 0.4238 -5.35871 -2.01229 -3.02712 # H_spce
276 93 2 0.4238 -4.99433 -2.50048 -1.51202 # H_spce
277 94 1 -0.8476 2.04793 6.14593 -5.35158 # O_spce
278 94 2 0.4238 1.95336 6.49339 -6.28449 # H_spce
279 94 2 0.4238 1.25348 6.42233 -4.8108 # H_spce
280 95 1 -0.8476 11.5932 10.8097 10.9164 # O_spce
281 95 2 0.4238 12.3311 11.4292 11.1843 # H_spce
282 95 2 0.4238 10.8955 10.7929 11.6326 # H_spce
283 96 1 -0.8476 11.6637 -6.85643 -10.5772 # O_spce
284 96 2 0.4238 10.7606 -7.14194 -10.2564 # H_spce
285 96 2 0.4238 12.3042 -6.85174 -9.80915 # H_spce
286 97 1 -0.8476 -0.696974 -8.59554 2.49922 # O_spce
287 97 2 0.4238 -1.32978 -8.61718 1.72521 # H_spce
288 97 2 0.4238 -0.873586 -7.78078 3.05146 # H_spce
289 98 1 -0.8476 -7.62886 -6.99711 -4.98426 # O_spce
290 98 2 0.4238 -7.62779 -6.08957 -4.5643 # H_spce
291 98 2 0.4238 -8.52752 -7.17851 -5.38364 # H_spce
292 99 1 -0.8476 -1.3051 2.22919 -2.304 # O_spce
293 99 2 0.4238 -2.05724 2.85075 -2.08502 # H_spce
294 99 2 0.4238 -0.707894 2.65507 -2.98368 # H_spce
295 100 1 -0.8476 2.76698 1.4841 8.22432 # O_spce
296 100 2 0.4238 3.57097 0.949098 8.48391 # H_spce
297 100 2 0.4238 2.55575 1.32197 7.26042 # H_spce
298 101 1 -0.8476 -0.477775 11.5602 9.44502 # O_spce
299 101 2 0.4238 0.175549 12.3001 9.60523 # H_spce
300 101 2 0.4238 -0.782397 11.1888 10.3221 # H_spce
301 102 1 -0.8476 9.00959 6.19859 -0.466078 # O_spce
302 102 2 0.4238 9.79847 6.16358 -1.07964 # H_spce
303 102 2 0.4238 9.02519 7.05601 0.0483028 # H_spce
304 103 1 -0.8476 -3.86816 10.4134 -14.1229 # O_spce
305 103 2 0.4238 -6.64436 5.58764 14.4144 # H_spce
306 103 2 0.4238 -3.05522 10.9812 -13.9937 # H_spce
307 104 1 -0.8476 13.9784 8.73033 7.44334 # O_spce
308 104 2 0.4238 13.2081 8.42447 8.00281 # H_spce
309 104 2 0.4238 14.4806 7.93486 7.10416 # H_spce
310 105 1 -0.8476 11.9429 3.9664 -9.6269 # O_spce
311 105 2 0.4238 11.4306 3.34035 -9.03896 # H_spce
312 105 2 0.4238 12.8981 3.99364 -9.3325 # H_spce
313 106 1 -0.8476 -14.0048 -4.37522 -8.40639 # O_spce
314 106 2 0.4238 -13.5767 -5.17269 -8.83157 # H_spce
315 106 2 0.4238 -13.3339 -3.90108 -7.83624 # H_spce
316 107 1 -0.8476 -14.5139 -10.7785 14.6384 # O_spce
317 107 2 0.4238 -11.3954 -6.78028 -14.3629 # H_spce
318 107 2 0.4238 -11.8442 -5.21055 -14.3963 # H_spce
319 108 1 -0.8476 -15.5894 -9.25173 4.82241 # O_spce
320 108 2 0.4238 -14.7277 -8.7445 4.80689 # H_spce
321 108 2 0.4238 -15.5372 -10.0171 4.1809 # H_spce
322 109 1 -0.8476 -12.5178 -9.71785 7.09277 # O_spce
323 109 2 0.4238 -11.5286 -9.74727 6.9496 # H_spce
324 109 2 0.4238 -12.9174 -10.5994 6.84129 # H_spce
325 110 1 -0.8476 -4.49178 -3.1531 5.0315 # O_spce
326 110 2 0.4238 -4.68746 -3.39694 5.98137 # H_spce
327 110 2 0.4238 -4.84066 -2.23479 4.84446 # H_spce
328 111 1 -0.8476 3.30307 -12.9171 7.29328 # O_spce
329 111 2 0.4238 3.65622 -12.8247 6.36229 # H_spce
330 111 2 0.4238 2.43869 -12.4206 7.37272 # H_spce
331 112 1 -0.8476 -13.0804 -6.56554 -5.36314 # O_spce
332 112 2 0.4238 -13.0314 -5.57654 -5.22361 # H_spce
333 112 2 0.4238 -13.9406 -6.79579 -5.81821 # H_spce
334 113 1 -0.8476 -8.70649 7.22153 -5.10479 # O_spce
335 113 2 0.4238 -8.45137 7.14239 -6.06845 # H_spce
336 113 2 0.4238 -9.5418 7.76545 -5.02471 # H_spce
337 114 1 -0.8476 -4.00501 5.5518 11.1588 # O_spce
338 114 2 0.4238 -4.83641 5.70735 11.6923 # H_spce
339 114 2 0.4238 -3.27744 6.15079 11.4933 # H_spce
340 115 1 -0.8476 -11.1302 -3.79283 5.90087 # O_spce
341 115 2 0.4238 -10.4944 -4.41951 5.45019 # H_spce
342 115 2 0.4238 -12.035 -3.87907 5.48398 # H_spce
343 116 1 -0.8476 -11.0501 9.58816 -6.59187 # O_spce
344 116 2 0.4238 -10.2794 10.2156 -6.70339 # H_spce
345 116 2 0.4238 -11.2532 9.15066 -7.46786 # H_spce
346 117 1 -0.8476 -5.76662 -10.0708 8.54514 # O_spce
347 117 2 0.4238 -6.16255 -10.7956 9.10896 # H_spce
348 117 2 0.4238 -6.48713 -9.43804 8.26147 # H_spce
349 118 1 -0.8476 -1.70981 12.4341 -13.7432 # O_spce
350 118 2 0.4238 -0.898115 12.3584 -14.3224 # H_spce
351 118 2 0.4238 -1.84981 13.391 -13.4889 # H_spce
352 119 1 -0.8476 -0.576908 4.9976 10.8949 # O_spce
353 119 2 0.4238 -1.5334 4.95183 11.1831 # H_spce
354 119 2 0.4238 -0.106857 5.71283 11.4121 # H_spce
355 120 1 -0.8476 15.8841 5.99322 -0.171266 # O_spce
356 120 2 0.4238 16.2684 6.83163 -0.557848 # H_spce
357 120 2 0.4238 15.0155 5.78625 -0.621335 # H_spce
358 121 1 -0.8476 -13.6534 -7.17299 5.61064 # O_spce
359 121 2 0.4238 -13.1851 -7.59642 6.38612 # H_spce
360 121 2 0.4238 -13.5161 -6.18285 5.63857 # H_spce
361 122 1 -0.8476 -6.26567 2.58658 5.34635 # O_spce
362 122 2 0.4238 -6.76066 1.77225 5.04328 # H_spce
363 122 2 0.4238 -5.62219 2.86947 4.63508 # H_spce
364 123 1 -0.8476 8.80293 -2.03456 -1.48894 # O_spce
365 123 2 0.4238 9.20621 -1.12831 -1.61572 # H_spce
366 123 2 0.4238 8.99578 -2.60032 -2.29065 # H_spce
367 124 1 -0.8476 -14.0355 -7.74985 -10.408 # O_spce
368 124 2 0.4238 -13.0478 -7.66125 -10.5369 # H_spce
369 124 2 0.4238 -14.5069 -7.06564 -10.9644 # H_spce
370 125 1 -0.8476 -8.23706 -8.04011 -13.2778 # O_spce
371 125 2 0.4238 -7.27944 -7.76072 -13.2077 # H_spce
372 125 2 0.4238 -8.3655 -8.58507 -14.1063 # H_spce
373 126 1 -0.8476 13.066 10.8365 -5.00413 # O_spce
374 126 2 0.4238 13.4659 10.1083 -4.44745 # H_spce
375 126 2 0.4238 12.0745 10.7149 -5.04954 # H_spce
376 127 1 -0.8476 3.22199 12.2534 -13.5769 # O_spce
377 127 2 0.4238 3.18905 12.1578 -12.582 # H_spce
378 127 2 0.4238 3.97455 12.8619 -13.8285 # H_spce
379 128 1 -0.8476 9.4551 -8.30001 -12.4641 # O_spce
380 128 2 0.4238 10.2377 -7.81356 -12.8527 # H_spce
381 128 2 0.4238 9.26378 -9.11469 -13.0116 # H_spce
382 129 1 -0.8476 2.9984 11.741 6.03293 # O_spce
383 129 2 0.4238 3.39671 12.2719 6.78096 # H_spce
384 129 2 0.4238 2.06661 12.059 5.85784 # H_spce
385 130 1 -0.8476 -10.3286 0.454593 5.9796 # O_spce
386 130 2 0.4238 -10.0649 0.672738 5.03999 # H_spce
387 130 2 0.4238 -9.85185 -0.372959 6.27601 # H_spce
388 131 1 -0.8476 6.21994 12.359 11.6149 # O_spce
389 131 2 0.4238 6.97638 11.7132 11.7181 # H_spce
390 131 2 0.4238 5.35984 11.9049 11.8472 # H_spce
391 132 1 -0.8476 1.7784 4.11088 4.16525 # O_spce
392 132 2 0.4238 1.60373 3.89915 5.12684 # H_spce
393 132 2 0.4238 2.76481 4.16169 4.00898 # H_spce
394 133 1 -0.8476 -16.585 -9.93547 7.68946 # O_spce
395 133 2 0.4238 -15.9233 -9.70531 6.9759 # H_spce
396 133 2 0.4238 -17.3789 -10.3818 7.27643 # H_spce
397 134 1 -0.8476 -5.09488 6.33412 -9.50374 # O_spce
398 134 2 0.4238 -4.1631 6.09262 -9.2327 # H_spce
399 134 2 0.4238 -5.6256 6.57771 -8.69196 # H_spce
400 135 1 -0.8476 10.7686 5.37204 -13.4849 # O_spce
401 135 2 0.4238 11.3032 4.72401 -12.9425 # H_spce
402 135 2 0.4238 11.091 6.30169 -13.3065 # H_spce
403 136 1 -0.8476 2.22875 4.09936 11.4163 # O_spce
404 136 2 0.4238 1.31676 4.30773 11.063 # H_spce
405 136 2 0.4238 2.79873 3.74079 10.677 # H_spce
406 137 1 -0.8476 3.49373 4.24228 -8.11943 # O_spce
407 137 2 0.4238 4.11783 4.66298 -8.77785 # H_spce
408 137 2 0.4238 3.87375 4.32773 -7.1984 # H_spce
409 138 1 -0.8476 14.0505 -0.0728693 -9.30863 # O_spce
410 138 2 0.4238 14.1568 0.106604 -8.33062 # H_spce
411 138 2 0.4238 14.2899 0.748608 -9.82619 # H_spce
412 139 1 -0.8476 11.8519 8.73771 2.8979 # O_spce
413 139 2 0.4238 12.0984 7.95925 2.32066 # H_spce
414 139 2 0.4238 12.6116 8.95103 3.51213 # H_spce
415 140 1 -0.8476 6.33952 5.4557 -7.20479 # O_spce
416 140 2 0.4238 5.54548 5.40584 -6.59899 # H_spce
417 140 2 0.4238 7.06515 5.98123 -6.76064 # H_spce
418 141 1 -0.8476 7.53892 8.42585 -13.5036 # O_spce
419 141 2 0.4238 8.00127 7.54005 -13.4637 # H_spce
420 141 2 0.4238 6.84949 8.47483 -12.7809 # H_spce
421 142 1 -0.8476 15.7442 10.2138 -2.0437 # O_spce
422 142 2 0.4238 15.0982 10.9127 -2.35049 # H_spce
423 142 2 0.4238 16.6792 10.5357 -2.19289 # H_spce
424 143 1 -0.8476 3.61498 -9.85333 -4.03053 # O_spce
425 143 2 0.4238 3.1685 -8.97785 -4.21542 # H_spce
426 143 2 0.4238 4.21356 -9.76075 -3.23484 # H_spce
427 144 1 -0.8476 3.20881 9.32285 -4.39209 # O_spce
428 144 2 0.4238 3.86647 8.69091 -4.80213 # H_spce
429 144 2 0.4238 3.604 10.2409 -4.36024 # H_spce
430 145 1 -0.8476 7.3488 -9.64103 14.133 # O_spce
431 145 2 0.4238 8.29534 -9.73993 14.44 # H_spce
432 145 2 0.4238 6.9009 -8.91927 14.6607 # H_spce
433 146 1 -0.8476 -5.53344 1.15501 -9.03656 # O_spce
434 146 2 0.4238 -5.32742 0.277904 -9.47043 # H_spce
435 146 2 0.4238 -5.75795 1.82997 -9.73942 # H_spce
436 147 1 -0.8476 -8.48025 -5.50678 12.1697 # O_spce
437 147 2 0.4238 -7.76499 -5.11008 12.7451 # H_spce
438 147 2 0.4238 -8.68495 -6.43378 12.484 # H_spce
439 148 1 -0.8476 -8.4876 4.74199 -6.79085 # O_spce
440 148 2 0.4238 -8.05982 3.84003 -6.73182 # H_spce
441 148 2 0.4238 -8.69246 5.07462 -5.87032 # H_spce
442 149 1 -0.8476 -5.68459 7.74015 -3.66086 # O_spce
443 149 2 0.4238 -5.86618 6.99534 -4.30295 # H_spce
444 149 2 0.4238 -6.13984 7.549 -2.79126 # H_spce
445 150 1 -0.8476 8.78518 3.52134 6.23935 # O_spce
446 150 2 0.4238 7.80257 3.66957 6.12757 # H_spce
447 150 2 0.4238 9.2672 4.39163 6.13805 # H_spce
448 151 1 -0.8476 -7.05477 10.7604 4.94496 # O_spce
449 151 2 0.4238 -8.00269 11.0667 4.85736 # H_spce
450 151 2 0.4238 -6.76719 10.8353 5.89978 # H_spce
451 152 1 -0.8476 -10.3614 -9.404 13.1563 # O_spce
452 152 2 0.4238 -9.90064 -8.83103 12.4786 # H_spce
453 152 2 0.4238 -11.2768 -9.04176 13.3321 # H_spce
454 153 1 -0.8476 -3.31396 8.56854 -3.5072 # O_spce
455 153 2 0.4238 -4.23118 8.77241 -3.84944 # H_spce
456 153 2 0.4238 -3.34276 7.73814 -2.95077 # H_spce
457 154 1 -0.8476 3.19829 0.39631 12.084 # O_spce
458 154 2 0.4238 2.45704 0.695773 12.6848 # H_spce
459 154 2 0.4238 3.55613 1.18183 11.5791 # H_spce
460 155 1 -0.8476 2.1047 9.53982 -8.59451 # O_spce
461 155 2 0.4238 1.56857 8.72016 -8.39273 # H_spce
462 155 2 0.4238 2.42995 9.50113 -9.53935 # H_spce
463 156 1 -0.8476 -13.2268 8.43596 10.7775 # O_spce
464 156 2 0.4238 15.8162 8.16016 10.8672 # H_spce
465 156 2 0.4238 16.9216 9.29104 11.2744 # H_spce
466 157 1 -0.8476 10.7565 0.980725 -9.50177 # O_spce
467 157 2 0.4238 9.9208 0.900796 -8.95845 # H_spce
468 157 2 0.4238 11.4769 0.423342 -9.0891 # H_spce
469 158 1 -0.8476 8.75005 9.15743 9.03103 # O_spce
470 158 2 0.4238 8.68923 9.45473 8.07818 # H_spce
471 158 2 0.4238 9.66779 9.34542 9.38091 # H_spce
472 159 1 -0.8476 -12.9346 0.330354 8.087 # O_spce
473 159 2 0.4238 -13.1936 0.043211 7.1648 # H_spce
474 159 2 0.4238 -12.4004 -0.393463 8.52377 # H_spce
475 160 1 -0.8476 -9.38306 4.96554 5.62777 # O_spce
476 160 2 0.4238 -9.92069 5.61931 5.09528 # H_spce
477 160 2 0.4238 -8.85405 4.38591 5.00795 # H_spce
478 161 1 -0.8476 -7.71029 -1.1372 -12.7653 # O_spce
479 161 2 0.4238 -8.33758 -0.437467 -13.1072 # H_spce
480 161 2 0.4238 -8.19742 -1.74282 -12.1361 # H_spce
481 162 1 -0.8476 -17.531 -15.5639 9.1094 # O_spce
482 162 2 0.4238 -16.7343 -15.0062 9.34259 # H_spce
483 162 2 0.4238 -17.9592 -15.2033 8.28082 # H_spce
484 163 1 -0.8476 -4.17507 7.04358 -13.4322 # O_spce
485 163 2 0.4238 -3.64183 7.88918 -13.4076 # H_spce
486 163 2 0.4238 -5.13592 7.24995 -13.2473 # H_spce
487 164 1 -0.8476 17.9724 12.8538 -11.7481 # O_spce
488 164 2 0.4238 17.9437 13.2647 -12.6593 # H_spce
489 164 2 0.4238 17.1399 13.0929 -11.2483 # H_spce
490 165 1 -0.8476 7.42298 2.72584 -8.98124 # O_spce
491 165 2 0.4238 7.14187 3.33292 -8.23798 # H_spce
492 165 2 0.4238 8.20272 3.1267 -9.46219 # H_spce
493 166 1 -0.8476 6.08657 11.4494 -5.46292 # O_spce
494 166 2 0.4238 6.38752 12.2741 -4.98395 # H_spce
495 166 2 0.4238 5.95374 11.6567 -6.43215 # H_spce
496 167 1 -0.8476 -1.93468 0.144715 -5.39414 # O_spce
497 167 2 0.4238 -2.49124 -0.283173 -4.68199 # H_spce
498 167 2 0.4238 -2.28589 -0.116093 -6.29337 # H_spce
499 168 1 -0.8476 -0.225991 -1.60885 -6.56733 # O_spce
500 168 2 0.4238 -0.410581 -0.672242 -6.26951 # H_spce
501 168 2 0.4238 0.363302 -2.06139 -5.89805 # H_spce
502 169 1 -0.8476 -13.8947 -14.5174 5.17235 # O_spce
503 169 2 0.4238 -13.3663 -13.8424 4.65752 # H_spce
504 169 2 0.4238 -14.4726 -15.0381 4.54389 # H_spce
505 170 1 -0.8476 -5.111 -3.54477 12.7002 # O_spce
506 170 2 0.4238 -4.38639 -3.40851 12.0246 # H_spce
507 170 2 0.4238 -5.93237 -3.05263 12.4118 # H_spce
508 171 1 -0.8476 -7.02788 -9.73526 0.180935 # O_spce
509 171 2 0.4238 -7.77416 -9.50165 0.804224 # H_spce
510 171 2 0.4238 -7.39057 -9.85483 -0.743271 # H_spce
511 172 1 -0.8476 5.8101 2.38629 8.03457 # O_spce
512 172 2 0.4238 5.33193 2.90854 8.74069 # H_spce
513 172 2 0.4238 6.53953 1.84698 8.45537 # H_spce
514 173 1 -0.8476 4.74282 -6.8619 -3.11319 # O_spce
515 173 2 0.4238 3.85697 -6.71442 -2.67327 # H_spce
516 173 2 0.4238 5.43822 -6.30697 -2.65659 # H_spce
517 174 1 -0.8476 -12.0259 3.29405 -14.093 # O_spce
518 174 2 0.4238 -12.0024 4.06301 -13.4542 # H_spce
519 174 2 0.4238 -12.8952 3.29782 -14.5873 # H_spce
520 175 1 -0.8476 -8.27232 1.47295 0.387938 # O_spce
521 175 2 0.4238 -7.79746 1.40561 -0.489546 # H_spce
522 175 2 0.4238 -8.6029 2.40784 0.517147 # H_spce
523 176 1 -0.8476 -0.254047 7.24221 -12.8447 # O_spce
524 176 2 0.4238 -1.24077 7.09894 -12.9213 # H_spce
525 176 2 0.4238 0.223821 6.38885 -13.0531 # H_spce
526 177 1 -0.8476 -13.482 -4.82864 -3.02558 # O_spce
527 177 2 0.4238 -14.4425 -4.55017 -3.02996 # H_spce
528 177 2 0.4238 -13.4231 -5.82048 -2.91252 # H_spce
529 178 1 -0.8476 -6.84004 0.8366 12.0988 # O_spce
530 178 2 0.4238 -7.48187 1.50433 12.4759 # H_spce
531 178 2 0.4238 -6.45821 1.18735 11.2437 # H_spce
532 179 1 -0.8476 9.76936 0.345615 12.0189 # O_spce
533 179 2 0.4238 9.99567 1.3069 11.8617 # H_spce
534 179 2 0.4238 8.82781 0.274391 12.3482 # H_spce
535 180 1 -0.8476 6.82629 -8.75602 -10.0566 # O_spce
536 180 2 0.4238 7.3228 -8.76468 -9.18864 # H_spce
537 180 2 0.4238 5.99388 -8.21052 -9.95904 # H_spce
538 181 1 -0.8476 -7.17254 -2.36891 -7.1863 # O_spce
539 181 2 0.4238 -6.56375 -2.3326 -6.39381 # H_spce
540 181 2 0.4238 -8.10212 -2.57864 -6.88318 # H_spce
541 182 1 -0.8476 5.27041 6.55156 7.98927 # O_spce
542 182 2 0.4238 4.40544 6.61726 8.48679 # H_spce
543 182 2 0.4238 5.55553 7.46362 7.69457 # H_spce
544 183 1 -0.8476 -6.73158 -6.01034 5.73887 # O_spce
545 183 2 0.4238 -7.4679 -6.17476 6.39523 # H_spce
546 183 2 0.4238 -5.87108 -6.36087 6.10856 # H_spce
547 184 1 -0.8476 15.2263 2.52747 -11.3922 # O_spce
548 184 2 0.4238 14.8349 3.41669 -11.1554 # H_spce
549 184 2 0.4238 14.7091 2.12626 -12.1482 # H_spce
550 185 1 -0.8476 14.0615 -2.00667 3.16829 # O_spce
551 185 2 0.4238 13.5201 -1.53788 3.8662 # H_spce
552 185 2 0.4238 -15.0015 -2.12474 3.49697 # H_spce
553 186 1 -0.8476 0.1208 -14.9244 8.9011 # O_spce
554 186 2 0.4238 0.569921 -15.7803 8.64487 # H_spce
555 186 2 0.4238 0.69144 -14.4324 9.55859 # H_spce
556 187 1 -0.8476 3.59877 -8.09646 1.44483 # O_spce
557 187 2 0.4238 2.61773 -7.97074 1.29733 # H_spce
558 187 2 0.4238 3.89526 -8.946 1.00851 # H_spce
559 188 1 -0.8476 -15.4955 -7.29301 -2.87525 # O_spce
560 188 2 0.4238 -15.8022 -6.34279 -2.81988 # H_spce
561 188 2 0.4238 -15.4499 -7.57319 -3.83412 # H_spce
562 189 1 -0.8476 -8.42426 15.799 -9.45499 # O_spce
563 189 2 0.4238 -8.16756 15.2628 -10.2591 # H_spce
564 189 2 0.4238 -17.0674 -12.7305 -9.61982 # H_spce
565 190 1 -0.8476 16.8021 6.08751 -7.104 # O_spce
566 190 2 0.4238 15.8358 6.04276 -6.85062 # H_spce
567 190 2 0.4238 -13.0267 5.47407 -7.87496 # H_spce
568 191 1 -0.8476 1.2681 -14.8973 4.64723 # O_spce
569 191 2 0.4238 0.705119 -14.1876 5.07087 # H_spce
570 191 2 0.4238 8.44163 13.4062 4.2045 # H_spce
571 192 1 -0.8476 -16.1681 -10.4567 -2.8308 # O_spce
572 192 2 0.4238 -15.3503 -10.2473 -2.29476 # H_spce
573 192 2 0.4238 -16.8526 -9.74179 -2.68757 # H_spce
574 193 1 -0.8476 7.87121 0.259189 -11.136 # O_spce
575 193 2 0.4238 7.94204 -0.728856 -10.999 # H_spce
576 193 2 0.4238 8.74945 0.688648 -10.9256 # H_spce
577 194 1 -0.8476 10.1494 8.63106 0.867194 # O_spce
578 194 2 0.4238 10.8499 8.00973 0.51618 # H_spce
579 194 2 0.4238 10.2784 8.75733 1.85076 # H_spce