# LAMMPS data file written by WriteLammpsdata function in RASPA(written by Zhao Li)
1803 atoms
0 bonds
0 angles
0 dihedrals
0 impropers
0 38.6755 xlo xhi
0 38.6755 ylo yhi
0 38.6755 zlo zhi
2.36819e-15 2.36819e-15 2.36819e-15 xy xz yz

18 atom types
0 bond types
0 angle types
0 dihedral types
0 improper types

Masses

1 0 # C
2 0 # H
3 0 # N
4 0 # P
5 0 # Ni
6 0 # Ht
7 0 # OT
8 0 # Op
9 0 # Ow
10 0 # Hw
11 0 # Lw
12 0 # Zr
13 0 # Cl
14 0 # O
15 0 # Si
16 0 # CH4
17 0 # C_co2
18 0 # O_co2

Pair Coeffs

1 0.104809 3.43 # C
2 0.0439235 2.57 # H
3 0.0688809 3.26 # N
4 0.304449 3.69 # P
5 0.0149784 2.52 # Ni
6 0 0 # Ht
7 0.184502 3.02 # OT
8 0.154744 3.154 # Op
9 0.154744 3.154 # Ow
10 0 0 # Hw
11 0 0 # Lw
12 0.0688851 2.78317 # Zr
13 0.0998719 4.3 # Cl
14 0.105147 3.3 # O
15 0.0436457 2.3 # Si
16 0.314448 3.72 # CH4
17 0.059384 2.745 # C_co2
18 0.169962 3.017 # O_co2

Atoms

1 2 18 -0.3256 14.9891 21.8083 21.2854 # O_co2
2 2 17 0.6512 14.5152 21.644 22.3313 # C_co2
3 2 18 -0.3256 14.0413 21.4797 23.3773 # O_co2
4 3 18 -0.3256 21.5683 3.95443 27.7306 # O_co2
5 3 17 0.6512 22.3148 4.79111 27.4335 # C_co2
6 3 18 -0.3256 23.0613 5.6278 27.1364 # O_co2
7 4 18 -0.3256 2.82656 12.6368 0.110004 # O_co2
8 4 17 0.6512 2.13003 12.0731 0.846683 # C_co2
9 4 18 -0.3256 1.4335 11.5094 1.58336 # O_co2
10 5 18 -0.3256 14.7187 1.61934 29.2534 # O_co2
11 5 17 0.6512 15.6245 1.65309 29.9772 # C_co2
12 5 18 -0.3256 16.5303 1.68684 30.7011 # O_co2
13 6 18 -0.3256 25.2941 38.5042 31.4684 # O_co2
14 6 17 0.6512 25.2104 37.4422 31.0094 # C_co2
15 6 18 -0.3256 25.1267 36.3801 30.5504 # O_co2
16 7 18 -0.3256 37.7778 15.2232 2.13779 # O_co2
17 7 17 0.6512 37.2813 14.9658 1.12152 # C_co2
18 7 18 -0.3256 36.7848 14.7083 0.10524 # O_co2
19 8 18 -0.3256 2.99863 20.2472 1.37522 # O_co2
20 8 17 0.6512 2.22957 21.0373 1.01479 # C_co2
21 8 18 -0.3256 1.4605 21.8274 0.654351 # O_co2
22 9 18 -0.3256 17.9651 19.0376 30.7858 # O_co2
23 9 17 0.6512 17.4391 19.5069 29.8646 # C_co2
24 9 18 -0.3256 16.9132 19.9763 28.9433 # O_co2
25 10 18 -0.3256 0.819872 22.747 16.9767 # O_co2
26 10 17 0.6512 1.19515 23.3675 17.8821 # C_co2
27 10 18 -0.3256 1.57042 23.988 18.7875 # O_co2
28 11 18 -0.3256 16.0249 16.7279 15.2632 # O_co2
29 11 17 0.6512 16.7665 17.5928 15.4814 # C_co2
30 11 18 -0.3256 17.5081 18.4576 15.6996 # O_co2
31 12 18 -0.3256 0.290838 15.4395 14.6348 # O_co2
32 12 17 0.6512 1.32518 15.2148 15.1094 # C_co2
33 12 18 -0.3256 2.35952 14.9901 15.584 # O_co2
34 13 18 -0.3256 22.9214 9.676 16.5961 # O_co2
35 13 17 0.6512 23.713 10.1216 15.8747 # C_co2
36 13 18 -0.3256 24.5046 10.5671 15.1532 # O_co2
37 14 18 -0.3256 10.3669 33.3238 5.50306 # O_co2
38 14 17 0.6512 10.1288 32.3168 6.0274 # C_co2
39 14 18 -0.3256 9.89078 31.3099 6.55174 # O_co2
40 15 18 -0.3256 6.61293 13.5829 35.0497 # O_co2
41 15 17 0.6512 6.79534 14.699 35.3078 # C_co2
42 15 18 -0.3256 6.97774 15.8151 35.5659 # O_co2
43 16 18 -0.3256 20.1447 11.5746 23.2469 # O_co2
44 16 17 0.6512 20.9656 11.4248 24.0527 # C_co2
45 16 18 -0.3256 21.7864 11.275 24.8586 # O_co2
46 17 18 -0.3256 12.7423 0.163462 13.5515 # O_co2
47 17 17 0.6512 13.2309 1.21548 13.5619 # C_co2
48 17 18 -0.3256 13.7196 2.2675 13.5723 # O_co2
49 18 18 -0.3256 25.7311 31.8318 16.0728 # O_co2
50 18 17 0.6512 25.3123 31.8869 17.1531 # C_co2
51 18 18 -0.3256 24.8934 31.9419 18.2334 # O_co2
52 19 18 -0.3256 26.4187 35.7977 12.7208 # O_co2
53 19 17 0.6512 26.5268 36.923 12.9809 # C_co2
54 19 18 -0.3256 26.6349 38.0483 13.241 # O_co2
55 20 18 -0.3256 7.78977 12.4384 38.0767 # O_co2
56 20 17 0.6512 7.33815 11.4654 37.6352 # C_co2
57 20 18 -0.3256 6.88654 10.4924 37.1937 # O_co2
58 21 18 -0.3256 11.9472 26.6235 32.931 # O_co2
59 21 17 0.6512 10.999 26.0951 33.3399 # C_co2
60 21 18 -0.3256 10.0508 25.5666 33.7489 # O_co2
61 22 18 -0.3256 21.5409 27.6027 37.9884 # O_co2
62 22 17 0.6512 22.4459 27.7342 38.702 # C_co2
63 22 18 -0.3256 23.351 27.8656 39.4155 # O_co2
64 23 18 -0.3256 32.8372 0.548007 8.98664 # O_co2
65 23 17 0.6512 33.7441 -0.0305458 8.55257 # C_co2
66 23 18 -0.3256 34.651 -0.609099 8.1185 # O_co2
67 24 18 -0.3256 0.345899 34.0289 5.6633 # O_co2
68 24 17 0.6512 0.194517 35.1005 6.08098 # C_co2
69 24 18 -0.3256 0.0431353 36.172 6.49867 # O_co2
70 25 18 -0.3256 26.159 35.3195 15.4678 # O_co2
71 25 17 0.6512 25.9252 35.058 16.5735 # C_co2
72 25 18 -0.3256 25.6914 34.7965 17.6792 # O_co2
73 26 18 -0.3256 13.9069 0.242507 33.6024 # O_co2
74 26 17 0.6512 13.5992 0.254006 34.7208 # C_co2
75 26 18 -0.3256 13.2916 0.265506 35.8392 # O_co2
76 27 18 -0.3256 23.5511 30.8949 0.271525 # O_co2
77 27 17 0.6512 22.6235 31.57 0.442773 # C_co2
78 27 18 -0.3256 21.6959 32.2452 0.614021 # O_co2
79 28 18 -0.3256 29.1461 22.7154 18.3356 # O_co2
80 28 17 0.6512 27.9895 22.6311 18.3627 # C_co2
81 28 18 -0.3256 26.8329 22.5469 18.3898 # O_co2
82 29 18 -0.3256 12.2171 29.4166 22.5974 # O_co2
83 29 17 0.6512 11.3217 28.9215 22.0508 # C_co2
84 29 18 -0.3256 10.4263 28.4263 21.5043 # O_co2
85 30 18 -0.3256 14.3383 8.3783 2.24428 # O_co2
86 30 17 0.6512 14.0585 9.01866 1.31839 # C_co2
87 30 18 -0.3256 13.7788 9.65902 0.392497 # O_co2
88 31 18 -0.3256 4.71964 11.4455 16.8112 # O_co2
89 31 17 0.6512 4.77306 11.7572 17.9273 # C_co2
90 31 18 -0.3256 4.82649 12.0689 19.0434 # O_co2
91 32 18 -0.3256 11.2393 11.8257 11.1177 # O_co2
92 32 17 0.6512 11.154 12.5393 10.2072 # C_co2
93 32 18 -0.3256 11.0686 13.253 9.2967 # O_co2
94 33 18 -0.3256 23.7821 12.0101 28.3303 # O_co2
95 33 17 0.6512 24.0516 12.6589 27.4073 # C_co2
96 33 18 -0.3256 24.3212 13.3076 26.4842 # O_co2
97 34 18 -0.3256 35.8583 35.6383 16.982 # O_co2
98 34 17 0.6512 36.7238 35.0157 16.5251 # C_co2
99 34 18 -0.3256 37.5893 34.393 16.0682 # O_co2
100 35 18 -0.3256 2.13172 16.7262 3.93262 # O_co2
101 35 17 0.6512 2.76376 15.7543 3.97133 # C_co2
102 35 18 -0.3256 3.3958 14.7823 4.01004 # O_co2
103 36 18 -0.3256 19.5685 21.328 21.5858 # O_co2
104 36 17 0.6512 20.3881 22.0864 21.9001 # C_co2
105 36 18 -0.3256 21.2076 22.8448 22.2143 # O_co2
106 37 18 -0.3256 1.60044 15.2208 37.0694 # O_co2
107 37 17 0.6512 0.55122 15.1854 36.576 # C_co2
108 37 18 -0.3256 -0.498002 15.15 36.0826 # O_co2
109 38 18 -0.3256 9.65136 36.2204 31.0973 # O_co2
110 38 17 0.6512 8.73675 35.599 30.7467 # C_co2
111 38 18 -0.3256 7.82214 34.9776 30.3961 # O_co2
112 39 18 -0.3256 36.6262 33.1919 2.0915 # O_co2
113 39 17 0.6512 37.5288 32.5637 1.72236 # C_co2
114 39 18 -0.3256 38.4314 31.9355 1.35322 # O_co2
115 40 18 -0.3256 4.63961 21.3163 18.2412 # O_co2
116 40 17 0.6512 5.00169 20.9391 19.2767 # C_co2
117 40 18 -0.3256 5.36377 20.5618 20.3121 # O_co2
118 41 18 -0.3256 26.6746 20.0637 3.23491 # O_co2
119 41 17 0.6512 25.6738 19.8903 3.79515 # C_co2
120 41 18 -0.3256 24.6729 19.7169 4.35538 # O_co2
121 42 18 -0.3256 13.7155 7.25941 28.4267 # O_co2
122 42 17 0.6512 12.7463 7.76252 28.8179 # C_co2
123 42 18 -0.3256 11.777 8.26564 29.2091 # O_co2
124 43 18 -0.3256 13.3457 1.74688 9.5907 # O_co2
125 43 17 0.6512 14.281 1.86689 10.2664 # C_co2
126 43 18 -0.3256 15.2162 1.98689 10.942 # O_co2
127 44 18 -0.3256 24.7663 26.2474 35.7317 # O_co2
128 44 17 0.6512 23.7847 26.8349 35.5394 # C_co2
129 44 18 -0.3256 22.8032 27.4224 35.3471 # O_co2
130 45 18 -0.3256 10.1297 15.3845 18.2319 # O_co2
131 45 17 0.6512 11.1779 15.0028 18.55 # C_co2
132 45 18 -0.3256 12.2261 14.6211 18.8681 # O_co2
133 46 18 -0.3256 31.1632 25.6374 12.6701 # O_co2
134 46 17 0.6512 31.8253 26.5485 12.3921 # C_co2
135 46 18 -0.3256 32.4874 27.4595 12.114 # O_co2
136 47 18 -0.3256 24.9105 31.8604 34.4808 # O_co2
137 47 17 0.6512 24.6153 30.7399 34.4269 # C_co2
138 47 18 -0.3256 24.3201 29.6194 34.3731 # O_co2
139 48 18 -0.3256 22.9007 33.4315 21.3788 # O_co2
140 48 17 0.6512 22.3661 33.7552 20.4016 # C_co2
141 48 18 -0.3256 21.8314 34.0789 19.4244 # O_co2
142 49 18 -0.3256 13.7216 34.5479 31.4034 # O_co2
143 49 17 0.6512 13.1732 33.6096 30.9979 # C_co2
144 49 18 -0.3256 12.6247 32.6713 30.5925 # O_co2
145 50 18 -0.3256 21.193 8.19925 0.00273657 # O_co2
146 50 17 0.6512 21.9872 7.3542 0.029982 # C_co2
147 50 18 -0.3256 22.7814 6.50914 0.0572274 # O_co2
148 51 18 -0.3256 19.8151 2.96338 4.32206 # O_co2
149 51 17 0.6512 20.2101 1.891 4.52086 # C_co2
150 51 18 -0.3256 20.6052 0.818607 4.71966 # O_co2
151 52 18 -0.3256 36.3325 25.0477 8.83102 # O_co2
152 52 17 0.6512 36.8735 24.0216 8.83903 # C_co2
153 52 18 -0.3256 37.4145 22.9955 8.84704 # O_co2
154 53 18 -0.3256 5.27668 34.0894 2.74753 # O_co2
155 53 17 0.6512 4.65965 33.3113 2.14796 # C_co2
156 53 18 -0.3256 4.04262 32.5332 1.5484 # O_co2
157 54 18 -0.3256 36.3174 36.3806 4.51565 # O_co2
158 54 17 0.6512 35.5634 35.9561 5.28828 # C_co2
159 54 18 -0.3256 34.8094 35.5317 6.06091 # O_co2
160 55 18 -0.3256 34.8758 29.0382 26.8686 # O_co2
161 55 17 0.6512 36.0206 29.2249 26.8799 # C_co2
162 55 18 -0.3256 37.1654 29.4116 26.8911 # O_co2
163 56 18 -0.3256 9.97921 21.1943 6.6083 # O_co2
164 56 17 0.6512 10.0288 20.3758 5.78783 # C_co2
165 56 18 -0.3256 10.0784 19.5573 4.96736 # O_co2
166 57 18 -0.3256 11.8114 15.9316 11.021 # O_co2
167 57 17 0.6512 11.0046 16.7638 10.9758 # C_co2
168 57 18 -0.3256 10.1978 17.5961 10.9305 # O_co2
169 58 18 -0.3256 8.305 20.4242 29.6536 # O_co2
170 58 17 0.6512 8.5324 19.8039 28.7001 # C_co2
171 58 18 -0.3256 8.7598 19.1837 27.7466 # O_co2
172 59 18 -0.3256 9.44199 23.9262 14.2271 # O_co2
173 59 17 0.6512 9.48485 23.7541 15.3734 # C_co2
174 59 18 -0.3256 9.52771 23.5819 16.5198 # O_co2
175 60 18 -0.3256 15.4207 37.0169 0.954115 # O_co2
176 60 17 0.6512 15.1789 36.3516 1.87309 # C_co2
177 60 18 -0.3256 14.9371 35.6863 2.79206 # O_co2
178 61 18 -0.3256 37.9261 37.7012 14.8322 # O_co2
179 61 17 0.6512 36.7759 37.6953 14.6821 # C_co2
180 61 18 -0.3256 35.6257 37.6893 14.5319 # O_co2
181 62 18 -0.3256 32.8059 38.2306 5.72186 # O_co2
182 62 17 0.6512 32.8624 39.26 5.1901 # C_co2
183 62 18 -0.3256 32.919 40.2894 4.65834 # O_co2
184 63 18 -0.3256 19.63 0.847373 27.2521 # O_co2
185 63 17 0.6512 19.1709 0.837657 26.1869 # C_co2
186 63 18 -0.3256 18.7117 0.827941 25.1216 # O_co2
187 64 18 -0.3256 10.3879 34.8445 37.6065 # O_co2
188 64 17 0.6512 11.0124 33.9686 37.1725 # C_co2
189 64 18 -0.3256 11.6369 33.0926 36.7385 # O_co2
190 65 18 -0.3256 15.1806 30.8062 36.261 # O_co2
191 65 17 0.6512 15.5184 29.8723 36.8605 # C_co2
192 65 18 -0.3256 15.8563 28.9384 37.46 # O_co2
193 66 18 -0.3256 16.5819 22.3243 17.8163 # O_co2
194 66 17 0.6512 17.2884 22.3725 18.7351 # C_co2
195 66 18 -0.3256 17.9949 22.4207 19.6538 # O_co2
196 67 18 -0.3256 24.0647 6.10653 22.0503 # O_co2
197 67 17 0.6512 23.9169 5.85478 23.1729 # C_co2
198 67 18 -0.3256 23.7691 5.60303 24.2956 # O_co2
199 68 18 -0.3256 1.55583 27.3919 13.9924 # O_co2
200 68 17 0.6512 1.79003 26.3871 14.5226 # C_co2
201 68 18 -0.3256 2.02423 25.3823 15.0528 # O_co2
202 69 18 -0.3256 4.46873 28.329 5.11806 # O_co2
203 69 17 0.6512 4.38864 28.95 6.09454 # C_co2
204 69 18 -0.3256 4.30854 29.571 7.07102 # O_co2
205 70 18 -0.3256 8.91269 36.0973 24.4669 # O_co2
206 70 17 0.6512 8.21245 35.9427 25.3787 # C_co2
207 70 18 -0.3256 7.51221 35.7881 26.2905 # O_co2
208 71 18 -0.3256 37.9302 23.7699 12.3346 # O_co2
209 71 17 0.6512 37.0879 24.2833 12.945 # C_co2
210 71 18 -0.3256 36.2456 24.7967 13.5554 # O_co2
211 72 18 -0.3256 18.4812 31.2825 6.842 # O_co2
212 72 17 0.6512 17.6322 31.9518 7.26242 # C_co2
213 72 18 -0.3256 16.7832 32.6212 7.68284 # O_co2
214 73 18 -0.3256 0.48909 24.7236 4.64912 # O_co2
215 73 17 0.6512 1.3887 24.8785 5.36487 # C_co2
216 73 18 -0.3256 2.28831 25.0334 6.08062 # O_co2
217 74 18 -0.3256 33.6106 8.99464 38.4718 # O_co2
218 74 17 0.6512 34.3186 8.64689 37.6213 # C_co2
219 74 18 -0.3256 35.0266 8.29913 36.7708 # O_co2
220 75 18 -0.3256 24.7366 0.882789 9.30723 # O_co2
221 75 17 0.6512 25.1604 0.551031 8.27965 # C_co2
222 75 18 -0.3256 25.5842 0.219273 7.25206 # O_co2
223 76 18 -0.3256 15.5434 13.2282 12.6876 # O_co2
224 76 17 0.6512 14.7103 14.0353 12.6956 # C_co2
225 76 18 -0.3256 13.8772 14.8424 12.7037 # O_co2
226 77 18 -0.3256 34.4362 28.3669 31.0524 # O_co2
227 77 17 0.6512 33.6254 28.5588 31.8594 # C_co2
228 77 18 -0.3256 32.8146 28.7506 32.6665 # O_co2
229 78 18 -0.3256 37.3652 0.780911 6.7793 # O_co2
230 78 17 0.6512 38.0074 1.73581 6.92572 # C_co2
231 78 18 -0.3256 38.6495 2.69072 7.07214 # O_co2
232 79 18 -0.3256 7.58615 24.0989 36.8042 # O_co2
233 79 17 0.6512 6.78067 23.6478 36.1019 # C_co2
234 79 18 -0.3256 5.97518 23.1966 35.3996 # O_co2
235 80 18 -0.3256 21.3472 33.1695 15.2012 # O_co2
236 80 17 0.6512 20.4204 32.9361 14.5439 # C_co2
237 80 18 -0.3256 19.4935 32.7027 13.8867 # O_co2
238 81 18 -0.3256 11.718 10.2456 13.5354 # O_co2
239 81 17 0.6512 12.6973 9.82859 13.0742 # C_co2
240 81 18 -0.3256 13.6766 9.41158 12.6131 # O_co2
241 82 18 -0.3256 4.88465 0.187632 5.61902 # O_co2
242 82 17 0.6512 4.61112 1.10343 4.96169 # C_co2
243 82 18 -0.3256 4.3376 2.01924 4.30435 # O_co2
244 83 18 -0.3256 36.2633 13.3352 25.6926 # O_co2
245 83 17 0.6512 36.7588 12.9115 24.7332 # C_co2
246 83 18 -0.3256 37.2543 12.4878 23.7737 # O_co2
247 84 18 -0.3256 4.17139 19.3652 30.3297 # O_co2
248 84 17 0.6512 3.3863 19.7907 31.0701 # C_co2
249 84 18 -0.3256 2.60121 20.2162 31.8105 # O_co2
250 85 18 -0.3256 12.0769 4.45461 27.6645 # O_co2
251 85 17 0.6512 11.2498 4.42432 26.8517 # C_co2
252 85 18 -0.3256 10.4227 4.39404 26.0389 # O_co2
253 86 18 -0.3256 33.1221 37.0599 2.94195 # O_co2
254 86 17 0.6512 34.0259 37.4307 2.31644 # C_co2
255 86 18 -0.3256 34.9296 37.8015 1.69092 # O_co2
256 87 18 -0.3256 2.88971 2.41441 9.02931 # O_co2
257 87 17 0.6512 2.58558 1.42913 8.49797 # C_co2
258 87 18 -0.3256 2.28144 0.443846 7.96664 # O_co2
259 88 18 -0.3256 17.7229 23.2122 36.3881 # O_co2
260 88 17 0.6512 18.6719 23.8323 36.1424 # C_co2
261 88 18 -0.3256 19.621 24.4524 35.8967 # O_co2
262 89 18 -0.3256 3.87245 9.72911 0.83646 # O_co2
263 89 17 0.6512 3.2818 8.73192 0.788079 # C_co2
264 89 18 -0.3256 2.69114 7.73473 0.739699 # O_co2
265 90 18 -0.3256 14.9858 10.2022 4.37611 # O_co2
266 90 17 0.6512 15.6336 11.132 4.12822 # C_co2
267 90 18 -0.3256 16.2814 12.0618 3.88033 # O_co2
268 91 18 -0.3256 21.5584 11.5106 0.608459 # O_co2
269 91 17 0.6512 20.6463 11.9787 0.0655867 # C_co2
270 91 18 -0.3256 19.7343 12.4467 -0.477286 # O_co2
271 92 18 -0.3256 16.7818 11.8003 14.9575 # O_co2
272 92 17 0.6512 16.8499 10.691 14.6253 # C_co2
273 92 18 -0.3256 16.918 9.58169 14.2931 # O_co2
274 93 18 -0.3256 23.117 33.1314 7.1162 # O_co2
275 93 17 0.6512 23.8259 33.9303 7.56865 # C_co2
276 93 18 -0.3256 24.5348 34.7293 8.02111 # O_co2
277 94 18 -0.3256 17.8459 34.4782 37.3097 # O_co2
278 94 17 0.6512 17.8387 33.9305 38.3322 # C_co2
279 94 18 -0.3256 17.8315 33.3828 39.3547 # O_co2
280 95 18 -0.3256 8.80227 2.45519 0.662991 # O_co2
281 95 17 0.6512 7.9632 2.1729 -0.0865893 # C_co2
282 95 18 -0.3256 7.12413 1.8906 -0.83617 # O_co2
283 96 18 -0.3256 14.1657 3.70508 23.3993 # O_co2
284 96 17 0.6512 15.1292 3.32899 22.8741 # C_co2
285 96 18 -0.3256 16.0927 2.95289 22.349 # O_co2
286 97 18 -0.3256 27.2075 37.791 20.9848 # O_co2
287 97 17 0.6512 27.2827 38.115 22.0961 # C_co2
288 97 18 -0.3256 27.358 38.439 23.2073 # O_co2
289 98 18 -0.3256 5.62859 10.5065 13.8778 # O_co2
290 98 17 0.6512 6.70824 10.1172 13.7094 # C_co2
291 98 18 -0.3256 7.78789 9.72783 13.541 # O_co2
292 99 18 -0.3256 18.1052 15.6346 18.5405 # O_co2
293 99 17 0.6512 17.4385 14.8348 18.0292 # C_co2
294 99 18 -0.3256 16.7719 14.035 17.5178 # O_co2
295 100 18 -0.3256 8.54026 14.4946 10.1393 # O_co2
296 100 17 0.6512 7.69787 14.2445 9.38206 # C_co2
297 100 18 -0.3256 6.85548 13.9943 8.62483 # O_co2
298 101 18 -0.3256 14.1003 25.66 12.6378 # O_co2
299 101 17 0.6512 14.4886 25.0808 13.5649 # C_co2
300 101 18 -0.3256 14.8768 24.5015 14.4919 # O_co2
301 102 18 -0.3256 5.13478 3.944 12.0088 # O_co2
302 102 17 0.6512 6.17965 3.78269 12.4861 # C_co2
303 102 18 -0.3256 7.22452 3.62138 12.9634 # O_co2
304 103 18 -0.3256 23.8624 37.4408 17.4094 # O_co2
305 103 17 0.6512 23.6359 38.2659 16.6262 # C_co2
306 103 18 -0.3256 23.4094 39.091 15.8429 # O_co2
307 104 18 -0.3256 38.329 13.6777 20.5735 # O_co2
308 104 17 0.6512 39.3028 14.308 20.5881 # C_co2
309 104 18 -0.3256 40.2765 14.9382 20.6028 # O_co2
310 105 18 -0.3256 8.30342 34.2176 35.775 # O_co2
311 105 17 0.6512 8.76335 33.8027 34.7942 # C_co2
312 105 18 -0.3256 9.22329 33.3878 33.8134 # O_co2
313 106 18 -0.3256 30.8097 36.3179 26.3655 # O_co2
314 106 17 0.6512 30.4707 35.3153 26.8404 # C_co2
315 106 18 -0.3256 30.1317 34.3127 27.3152 # O_co2
316 107 18 -0.3256 0.434659 15.2462 30.0483 # O_co2
317 107 17 0.6512 0.376026 16.4047 30.0608 # C_co2
318 107 18 -0.3256 0.317393 17.5631 30.0734 # O_co2
319 108 18 -0.3256 13.8995 22.8488 8.80002 # O_co2
320 108 17 0.6512 13.3265 22.3885 7.90253 # C_co2
321 108 18 -0.3256 12.7536 21.9282 7.00504 # O_co2
322 109 18 -0.3256 28.0976 14.8557 3.44552 # O_co2
323 109 17 0.6512 27.9446 13.924 4.11932 # C_co2
324 109 18 -0.3256 27.7915 12.9922 4.79312 # O_co2
325 110 18 -0.3256 3.08044 7.83325 7.74789 # O_co2
326 110 17 0.6512 2.23078 7.11255 8.07082 # C_co2
327 110 18 -0.3256 1.38113 6.39185 8.39374 # O_co2
328 111 18 -0.3256 30.5952 31.7129 34.8392 # O_co2
329 111 17 0.6512 30.4474 32.2562 35.8533 # C_co2
330 111 18 -0.3256 30.2996 32.7995 36.8675 # O_co2
331 112 18 -0.3256 27.661 0.264981 36.5085 # O_co2
332 112 17 0.6512 26.775 -0.474381 36.3908 # C_co2
333 112 18 -0.3256 25.8889 -1.21374 36.2732 # O_co2
334 113 18 -0.3256 15.8582 29.8925 20.1035 # O_co2
335 113 17 0.6512 16.2329 29.8639 21.2009 # C_co2
336 113 18 -0.3256 16.6076 29.8352 22.2984 # O_co2
337 114 18 -0.3256 37.4982 36.0307 30.87 # O_co2
338 114 17 0.6512 36.6839 35.635 30.1448 # C_co2
339 114 18 -0.3256 35.8696 35.2392 29.4196 # O_co2
340 115 18 -0.3256 31.2271 12.465 20.4206 # O_co2
341 115 17 0.6512 30.1658 12.8604 20.6712 # C_co2
342 115 18 -0.3256 29.1045 13.2558 20.9219 # O_co2
343 116 18 -0.3256 29.6539 28.2896 0.669406 # O_co2
344 116 17 0.6512 29.8621 29.0817 -0.152067 # C_co2
345 116 18 -0.3256 30.0704 29.8738 -0.973541 # O_co2
346 117 18 -0.3256 36.1438 9.98504 3.98792 # O_co2
347 117 17 0.6512 36.6634 11.0067 4.16668 # C_co2
348 117 18 -0.3256 37.183 12.0283 4.34545 # O_co2
349 118 18 -0.3256 3.33958 14.3205 9.06126 # O_co2
350 118 17 0.6512 3.38393 13.7133 10.0486 # C_co2
351 118 18 -0.3256 3.42829 13.106 11.036 # O_co2
352 119 18 -0.3256 32.055 30.86 21.763 # O_co2
353 119 17 0.6512 31.5407 31.7352 21.2016 # C_co2
354 119 18 -0.3256 31.0264 32.6103 20.6402 # O_co2
355 120 18 -0.3256 24.4633 22.7996 16.6622 # O_co2
356 120 17 0.6512 23.6468 22.7378 17.4838 # C_co2
357 120 18 -0.3256 22.8302 22.676 18.3054 # O_co2
358 121 18 -0.3256 31.4447 10.9585 15.0565 # O_co2
359 121 17 0.6512 30.3502 11.3425 15.0518 # C_co2
360 121 18 -0.3256 29.2556 11.7266 15.0472 # O_co2
361 122 18 -0.3256 7.38424 3.00217 17.5837 # O_co2
362 122 17 0.6512 7.71372 3.62041 16.6591 # C_co2
363 122 18 -0.3256 8.0432 4.23865 15.7345 # O_co2
364 123 18 -0.3256 13.868 13.8687 1.28844 # O_co2
365 123 17 0.6512 13.9629 15.0027 1.51367 # C_co2
366 123 18 -0.3256 14.0579 16.1366 1.7389 # O_co2
367 124 18 -0.3256 26.149 17.1232 32.3963 # O_co2
368 124 17 0.6512 26.4628 16.1941 31.7768 # C_co2
369 124 18 -0.3256 26.7766 15.2649 31.1572 # O_co2
370 125 18 -0.3256 26.4641 4.2655 5.68935 # O_co2
371 125 17 0.6512 25.5298 4.11294 5.019 # C_co2
372 125 18 -0.3256 24.5955 3.96039 4.34866 # O_co2
373 126 18 -0.3256 0.135234 19.8195 37.6312 # O_co2
374 126 17 0.6512 -0.473613 18.914 38.0249 # C_co2
375 126 18 -0.3256 -1.08246 18.0085 38.4185 # O_co2
376 127 18 -0.3256 5.66524 36.4225 18.1537 # O_co2
377 127 17 0.6512 6.27732 36.2905 17.1773 # C_co2
378 127 18 -0.3256 6.8894 36.1585 16.2008 # O_co2
379 128 18 -0.3256 31.6891 15.7534 8.91504 # O_co2
380 128 17 0.6512 32.5802 16.1613 8.29426 # C_co2
381 128 18 -0.3256 33.4712 16.5691 7.67349 # O_co2
382 129 18 -0.3256 24.1294 14.7528 30.6238 # O_co2
383 129 17 0.6512 23.3983 15.1246 31.4441 # C_co2
384 129 18 -0.3256 22.6673 15.4964 32.2644 # O_co2
385 130 18 -0.3256 3.6572 27.8006 10.286 # O_co2
386 130 17 0.6512 3.79189 28.1618 11.3801 # C_co2
387 130 18 -0.3256 3.92657 28.523 12.4742 # O_co2
388 131 18 -0.3256 7.91152 17.4489 19.5959 # O_co2
389 131 17 0.6512 8.34063 17.6216 20.6597 # C_co2
390 131 18 -0.3256 8.76975 17.7943 21.7235 # O_co2
391 132 18 -0.3256 4.61027 19.6835 4.52821 # O_co2
392 132 17 0.6512 5.28436 19.6244 5.47039 # C_co2
393 132 18 -0.3256 5.95845 19.5652 6.41257 # O_co2
394 133 18 -0.3256 20.2548 26.7365 22.6464 # O_co2
395 133 17 0.6512 19.1162 26.5198 22.6947 # C_co2
396 133 18 -0.3256 17.9777 26.3032 22.7431 # O_co2
397 134 18 -0.3256 2.1284 34.9219 23.2721 # O_co2
398 134 17 0.6512 1.70934 34.0582 22.6209 # C_co2
399 134 18 -0.3256 1.29028 33.1945 21.9698 # O_co2
400 135 18 -0.3256 17.5537 7.64991 18.3152 # O_co2
401 135 17 0.6512 16.7122 8.20315 18.8909 # C_co2
402 135 18 -0.3256 15.8707 8.75639 19.4665 # O_co2
403 136 18 -0.3256 32.9306 16.0406 31.2268 # O_co2
404 136 17 0.6512 33.1222 17.1694 31.0405 # C_co2
405 136 18 -0.3256 33.3137 18.2982 30.8542 # O_co2
406 137 18 -0.3256 6.54081 16.6161 0.502911 # O_co2
407 137 17 0.6512 5.50582 17.0861 0.271597 # C_co2
408 137 18 -0.3256 4.47083 17.556 0.0402829 # O_co2
409 138 18 -0.3256 11.0469 8.72497 32.9457 # O_co2
410 138 17 0.6512 11.5959 7.80399 33.3883 # C_co2
411 138 18 -0.3256 12.145 6.883 33.831 # O_co2
412 139 18 -0.3256 8.29053 0.878751 24.8169 # O_co2
413 139 17 0.6512 8.57509 0.578353 25.9006 # C_co2
414 139 18 -0.3256 8.85965 0.277954 26.9843 # O_co2
415 140 18 -0.3256 24.7068 31.9745 12.8809 # O_co2
416 140 17 0.6512 25.7594 31.606 12.562 # C_co2
417 140 18 -0.3256 26.8121 31.2375 12.2431 # O_co2
418 141 18 -0.3256 26.0538 16.9856 3.50608 # O_co2
419 141 17 0.6512 25.4061 17.3157 2.60217 # C_co2
420 141 18 -0.3256 24.7583 17.6458 1.69827 # O_co2
421 142 18 -0.3256 18.8346 16.6052 34.1353 # O_co2
422 142 17 0.6512 19.1462 15.4942 34.2544 # C_co2
423 142 18 -0.3256 19.4578 14.3832 34.3734 # O_co2
424 143 18 -0.3256 0.769979 33.6337 11.3018 # O_co2
425 143 17 0.6512 1.43095 32.7379 11.6277 # C_co2
426 143 18 -0.3256 2.09192 31.842 11.9535 # O_co2
427 144 18 -0.3256 8.73363 7.22337 14.8714 # O_co2
428 144 17 0.6512 9.13011 6.4726 14.081 # C_co2
429 144 18 -0.3256 9.5266 5.72183 13.2906 # O_co2
430 145 18 -0.3256 28.9213 28.5275 17.2936 # O_co2
431 145 17 0.6512 29.8712 28.3027 16.667 # C_co2
432 145 18 -0.3256 30.8211 28.0779 16.0403 # O_co2
433 146 18 -0.3256 34.0327 29.0628 16.8114 # O_co2
434 146 17 0.6512 34.8477 29.7129 17.3201 # C_co2
435 146 18 -0.3256 35.6627 30.363 17.8287 # O_co2
436 147 18 -0.3256 11.8247 27.0903 37.1016 # O_co2
437 147 17 0.6512 11.6728 25.9932 37.4464 # C_co2
438 147 18 -0.3256 11.5209 24.8961 37.7912 # O_co2
439 148 18 -0.3256 8.61405 16.7082 30.3561 # O_co2
440 148 17 0.6512 8.08777 16.2364 31.2759 # C_co2
441 148 18 -0.3256 7.5615 15.7645 32.1957 # O_co2
442 149 18 -0.3256 33.6781 32.3969 15.9672 # O_co2
443 149 17 0.6512 33.3589 32.0585 14.9046 # C_co2
444 149 18 -0.3256 33.0396 31.72 13.842 # O_co2
445 150 18 -0.3256 0.335033 28.3724 7.34798 # O_co2
446 150 17 0.6512 0.725986 29.4341 7.09201 # C_co2
447 150 18 -0.3256 1.11694 30.4958 6.83605 # O_co2
448 151 18 -0.3256 22.6923 22.5831 35.6708 # O_co2
449 151 17 0.6512 22.6315 23.3566 34.8085 # C_co2
450 151 18 -0.3256 22.5707 24.1302 33.9463 # O_co2
451 152 18 -0.3256 12.0361 13.7361 21.8695 # O_co2
452 152 17 0.6512 10.9644 13.9102 21.4611 # C_co2
453 152 18 -0.3256 9.89275 14.0842 21.0527 # O_co2
454 153 18 -0.3256 12.0953 29.9756 33.4654 # O_co2
455 153 17 0.6512 10.9636 30.1603 33.641 # C_co2
456 153 18 -0.3256 9.83197 30.345 33.8166 # O_co2
457 154 18 -0.3256 12.2345 15.2894 6.08661 # O_co2
458 154 17 0.6512 11.2971 15.8442 5.68784 # C_co2
459 154 18 -0.3256 10.3596 16.3989 5.28907 # O_co2
460 155 18 -0.3256 4.85338 32.558 10.888 # O_co2
461 155 17 0.6512 5.28342 32.3095 9.83974 # C_co2
462 155 18 -0.3256 5.71346 32.061 8.79146 # O_co2
463 156 18 -0.3256 1.01272 36.8761 20.874 # O_co2
464 156 17 0.6512 1.94873 36.8013 20.1929 # C_co2
465 156 18 -0.3256 2.88474 36.7265 19.5118 # O_co2
466 157 18 -0.3256 23.0298 0.288654 3.47364 # O_co2
467 157 17 0.6512 23.5087 -0.307502 2.6014 # C_co2
468 157 18 -0.3256 23.9877 -0.903659 1.72916 # O_co2
469 158 18 -0.3256 23.2159 7.2741 11.3691 # O_co2
470 158 17 0.6512 22.6013 8.08841 10.8172 # C_co2
471 158 18 -0.3256 21.9866 8.90273 10.2652 # O_co2
472 159 18 -0.3256 28.2487 25.5309 37.4482 # O_co2
473 159 17 0.6512 28.7288 24.9998 38.3609 # C_co2
474 159 18 -0.3256 29.209 24.4687 39.2735 # O_co2
475 160 18 -0.3256 3.66808 35.7118 5.06254 # O_co2
476 160 17 0.6512 3.38224 35.5347 6.17273 # C_co2
477 160 18 -0.3256 3.09641 35.3575 7.28292 # O_co2
478 161 18 -0.3256 23.6129 25.2246 24.6301 # O_co2
479 161 17 0.6512 23.7271 24.1364 24.2449 # C_co2
480 161 18 -0.3256 23.8414 23.0482 23.8597 # O_co2
481 162 18 -0.3256 16.105 26.7357 26.8845 # O_co2
482 162 17 0.6512 17.1012 27.3168 27.0094 # C_co2
483 162 18 -0.3256 18.0974 27.8979 27.1343 # O_co2
484 163 18 -0.3256 37.8402 8.99034 24.7294 # O_co2
485 163 17 0.6512 37.8046 8.06917 25.4335 # C_co2
486 163 18 -0.3256 37.769 7.14801 26.1377 # O_co2
487 164 18 -0.3256 20.1002 9.24415 31.4956 # O_co2
488 164 17 0.6512 19.4826 8.33501 31.1246 # C_co2
489 164 18 -0.3256 18.865 7.42586 30.7536 # O_co2
490 165 18 -0.3256 30.6357 1.86927 19.2769 # O_co2
491 165 17 0.6512 30.3174 1.48305 20.3234 # C_co2
492 165 18 -0.3256 29.9991 1.09684 21.3699 # O_co2
493 166 18 -0.3256 3.5456 19.8489 7.9378 # O_co2
494 166 17 0.6512 3.64117 19.4783 9.03285 # C_co2
495 166 18 -0.3256 3.73673 19.1077 10.1279 # O_co2
496 167 18 -0.3256 30.1384 8.2647 30.0874 # O_co2
497 167 17 0.6512 30.8986 7.38957 30.1303 # C_co2
498 167 18 -0.3256 31.6588 6.51444 30.1733 # O_co2
499 168 18 -0.3256 31.1022 10.1899 32.8623 # O_co2
500 168 17 0.6512 32.2482 10.2709 32.7021 # C_co2
501 168 18 -0.3256 33.3942 10.3518 32.5419 # O_co2
502 169 18 -0.3256 8.6137 26.5496 38.6194 # O_co2
503 169 17 0.6512 8.7696 27.6508 38.2898 # C_co2
504 169 18 -0.3256 8.92551 28.752 37.9602 # O_co2
505 170 18 -0.3256 26.9292 1.81537 15.1962 # O_co2
506 170 17 0.6512 26.4566 1.8967 16.2524 # C_co2
507 170 18 -0.3256 25.9839 1.97802 17.3086 # O_co2
508 171 18 -0.3256 18.1281 34.9057 30.4389 # O_co2
509 171 17 0.6512 17.8682 34.4741 29.394 # C_co2
510 171 18 -0.3256 17.6083 34.0426 28.3491 # O_co2
511 172 18 -0.3256 11.89 36.5255 1.48241 # O_co2
512 172 17 0.6512 11.9935 36.1563 2.57719 # C_co2
513 172 18 -0.3256 12.097 35.7871 3.67198 # O_co2
514 173 18 -0.3256 3.07374 9.72727 32.5609 # O_co2
515 173 17 0.6512 2.01497 9.63585 33.0259 # C_co2
516 173 18 -0.3256 0.956195 9.54444 33.4909 # O_co2
517 174 18 -0.3256 30.0095 20.6175 3.68303 # O_co2
518 174 17 0.6512 29.4953 20.8502 4.69645 # C_co2
519 174 18 -0.3256 28.9811 21.0829 5.70988 # O_co2
520 175 18 -0.3256 35.7879 19.2941 34.6345 # O_co2
521 175 17 0.6512 35.0124 18.7961 35.3389 # C_co2
522 175 18 -0.3256 34.237 18.2981 36.0434 # O_co2
523 176 18 -0.3256 25.9891 0.86607 0.408284 # O_co2
524 176 17 0.6512 26.8727 0.42221 1.01479 # C_co2
525 176 18 -0.3256 27.7563 -0.0216499 1.62131 # O_co2
526 177 18 -0.3256 29.2045 30.9407 3.21944 # O_co2
527 177 17 0.6512 30.1561 30.2945 3.0698 # C_co2
528 177 18 -0.3256 31.1077 29.6483 2.92015 # O_co2
529 178 18 -0.3256 6.48499 3.50334 25.548 # O_co2
530 178 17 0.6512 5.39061 3.88795 25.5449 # C_co2
531 178 18 -0.3256 4.29623 4.27256 25.5418 # O_co2
532 179 18 -0.3256 16.4758 30.2627 10.8123 # O_co2
533 179 17 0.6512 15.3691 30.5398 10.6028 # C_co2
534 179 18 -0.3256 14.2623 30.8169 10.3933 # O_co2
535 180 18 -0.3256 1.96769 28.6249 31.7422 # O_co2
536 180 17 0.6512 2.96369 29.2171 31.689 # C_co2
537 180 18 -0.3256 3.95969 29.8093 31.6358 # O_co2
538 181 18 -0.3256 16.9154 27.117 1.49666 # O_co2
539 181 17 0.6512 17.9592 27.1965 0.996811 # C_co2
540 181 18 -0.3256 19.0029 27.2761 0.496963 # O_co2
541 182 18 -0.3256 5.47192 6.26381 0.759962 # O_co2
542 182 17 0.6512 5.9205 7.31711 0.572995 # C_co2
543 182 18 -0.3256 6.36907 8.3704 0.386028 # O_co2
544 183 18 -0.3256 1.68163 20.1454 28.2825 # O_co2
545 183 17 0.6512 0.693258 20.3779 28.8434 # C_co2
546 183 18 -0.3256 -0.295111 20.6105 29.4043 # O_co2
547 184 18 -0.3256 4.18959 35.0986 12.9465 # O_co2
548 184 17 0.6512 4.63679 36.1519 13.1362 # C_co2
549 184 18 -0.3256 5.084 37.2053 13.326 # O_co2
550 185 18 -0.3256 3.13417 6.87782 25.8823 # O_co2
551 185 17 0.6512 3.42535 7.99067 26.0319 # C_co2
552 185 18 -0.3256 3.71653 9.10352 26.1815 # O_co2
553 186 18 -0.3256 10.2604 1.91531 3.65325 # O_co2
554 186 17 0.6512 10.3886 3.03254 3.36874 # C_co2
555 186 18 -0.3256 10.5168 4.14978 3.08423 # O_co2
556 187 18 -0.3256 21.6574 32.7747 9.77506 # O_co2
557 187 17 0.6512 21.7025 31.6864 9.37617 # C_co2
558 187 18 -0.3256 21.7476 30.5981 8.97729 # O_co2
559 188 18 -0.3256 10.8074 0.72107 20.5382 # O_co2
560 188 17 0.6512 10.1863 0.130321 21.3198 # C_co2
561 188 18 -0.3256 9.56527 -0.460428 22.1014 # O_co2
562 189 18 -0.3256 10.1603 2.15338 33.997 # O_co2
563 189 17 0.6512 10.105 1.47338 33.0589 # C_co2
564 189 18 -0.3256 10.0497 0.793375 32.1207 # O_co2
565 190 18 -0.3256 35.2902 11.0368 0.523856 # O_co2
566 190 17 0.6512 36.0305 11.328 -0.320383 # C_co2
567 190 18 -0.3256 36.7708 11.6192 -1.16462 # O_co2
568 191 18 -0.3256 13.7235 11.2384 19.5956 # O_co2
569 191 17 0.6512 14.3088 12.0666 20.1586 # C_co2
570 191 18 -0.3256 14.894 12.8949 20.7217 # O_co2
571 192 18 -0.3256 15.3914 30.4935 27.9073 # O_co2
572 192 17 0.6512 15.5429 31.3384 28.6876 # C_co2
573 192 18 -0.3256 15.6945 32.1832 29.4678 # O_co2
574 193 18 -0.3256 25.1251 16.5932 9.36123 # O_co2
575 193 17 0.6512 24.8914 17.6533 8.95245 # C_co2
576 193 18 -0.3256 24.6576 18.7134 8.54366 # O_co2
577 194 18 -0.3256 11.7623 29.5952 26.7655 # O_co2
578 194 17 0.6512 11.9481 28.6429 27.4013 # C_co2
579 194 18 -0.3256 12.134 27.6907 28.0371 # O_co2
580 195 18 -0.3256 35.2372 33.9928 13.4529 # O_co2
581 195 17 0.6512 36.2697 34.4786 13.2441 # C_co2
582 195 18 -0.3256 37.3021 34.9644 13.0352 # O_co2
583 196 18 -0.3256 28.4794 4.2374 1.13751 # O_co2
584 196 17 0.6512 28.5751 3.63975 0.147937 # C_co2