# LAMMPS data file written by WriteLammpsdata function in RASPA(written by Zhao Li)
2204 atoms
0 bonds
0 angles
0 dihedrals
0 impropers
0 26.4018 xlo xhi
0 25.6596 ylo yhi
0 32.9026 zlo zhi
1.5712e-15 2.0147e-15 2.0147e-15 xy xz yz

10 atom types
0 bond types
0 angle types
0 dihedral types
0 improper types

Masses

1 0 # HH
2 0 # c
3 0 # C
4 0 # Al
5 0 # o
6 0 # OH
7 0 # H
8 0 # CH3_xyl
9 0 # C_xyl
10 0 # H_xyl

Pair Coeffs

1 0 0 # HH
2 0.0414634 3.81 # c
3 0.0549539 3.81 # C
4 0.216443 3.91 # Al
5 0.0440425 3.12 # o
6 0.0416618 3.12 # OH
7 0.0267826 2.45 # H
8 0.169643 3.8 # CH3_xyl
9 0.0699125 3.55 # C_xyl
10 0.029818 2.42 # H_xyl

Atoms

1 1 4 1.65042 9.9777e-16 9.9777e-16 16.2948 # Al
2 1 6 -0.98778 4.95034 0.812511 16.2927 # OH
3 1 1 0.43303 4.95034 1.76153 16.2927 # HH
4 1 5 -0.60619 6.02846 11.6297 14.8978 # o
5 1 5 -0.60619 3.81268 7.64092 9.38843 # o
6 1 5 -0.60619 3.87143 11.6297 14.8978 # o
7 1 5 -0.60619 6.0872 7.64092 9.38843 # o
8 1 4 1.65042 3.30023 9.9777e-16 16.2948 # Al
9 1 4 1.65042 3.30023 6.4149 8.06917 # Al
10 1 4 1.65042 8.86894e-16 6.4149 8.06917 # Al
11 1 6 -0.98778 1.65011 12.0173 16.2927 # OH
12 1 1 0.43303 1.65011 11.0683 16.2927 # HH
13 1 5 -0.60619 0.571995 1.2001 14.8978 # o
14 1 5 -0.60619 0.513251 1.22704 1.16344 # o
15 1 5 -0.60619 6.0872 11.6028 1.16344 # o
16 1 5 -0.60619 2.78777 5.18888 9.38843 # o
17 1 5 -0.60619 2.72902 1.2001 14.8978 # o
18 1 5 -0.60619 0.513251 5.18888 9.38843 # o
19 1 5 -0.60619 2.78697 1.22704 1.16344 # o
20 1 5 -0.60619 3.81348 11.6028 1.16344 # o
21 1 6 -0.98778 1.65011 7.22741 8.06706 # OH
22 1 1 0.43303 1.65011 8.17643 8.06706 # HH
23 1 5 -0.60619 2.72823 5.2148 6.67215 # o
24 1 5 -0.60619 0.571203 5.2148 6.67215 # o
25 1 6 -0.98778 4.95034 5.60239 8.06706 # OH
26 1 1 0.43303 4.95034 4.65337 8.06706 # HH
27 1 5 -0.60619 3.87222 7.615 6.67215 # o
28 1 5 -0.60619 6.02925 7.615 6.67215 # o
29 1 4 1.65042 2.00512e-15 2.00512e-15 32.7461 # Al
30 1 6 -0.98778 4.95034 0.812511 32.744 # OH
31 1 1 0.43303 4.95034 1.76153 32.744 # HH
32 1 5 -0.60619 6.02846 11.6297 31.3491 # o
33 1 5 -0.60619 3.81268 7.64092 25.8397 # o
34 1 5 -0.60619 3.87143 11.6297 31.3491 # o
35 1 5 -0.60619 6.0872 7.64092 25.8397 # o
36 1 4 1.65042 3.30023 2.00512e-15 32.7461 # Al
37 1 4 1.65042 3.30023 6.4149 24.5205 # Al
38 1 4 1.65042 1.89425e-15 6.4149 24.5205 # Al
39 1 6 -0.98778 1.65011 12.0173 32.744 # OH
40 1 1 0.43303 1.65011 11.0683 32.744 # HH
41 1 5 -0.60619 0.571995 1.2001 31.3491 # o
42 1 5 -0.60619 0.513251 1.22704 17.6147 # o
43 1 5 -0.60619 6.0872 11.6028 17.6147 # o
44 1 5 -0.60619 2.78777 5.18888 25.8397 # o
45 1 5 -0.60619 2.72902 1.2001 31.3491 # o
46 1 5 -0.60619 0.513251 5.18888 25.8397 # o
47 1 5 -0.60619 2.78697 1.22704 17.6147 # o
48 1 5 -0.60619 3.81348 11.6028 17.6147 # o
49 1 6 -0.98778 1.65011 7.22741 24.5184 # OH
50 1 1 0.43303 1.65011 8.17643 24.5184 # HH
51 1 5 -0.60619 2.72823 5.2148 23.1235 # o
52 1 5 -0.60619 0.571203 5.2148 23.1235 # o
53 1 6 -0.98778 4.95034 5.60239 24.5184 # OH
54 1 1 0.43303 4.95034 4.65337 24.5184 # HH
55 1 5 -0.60619 3.87222 7.615 23.1235 # o
56 1 5 -0.60619 6.02925 7.615 23.1235 # o
57 1 4 1.65042 1.78337e-15 12.8298 16.2948 # Al
58 1 6 -0.98778 4.95034 13.6423 16.2927 # OH
59 1 1 0.43303 4.95034 14.5913 16.2927 # HH
60 1 5 -0.60619 6.02846 24.4595 14.8978 # o
61 1 5 -0.60619 3.81268 20.4707 9.38843 # o
62 1 5 -0.60619 3.87143 24.4595 14.8978 # o
63 1 5 -0.60619 6.0872 20.4707 9.38843 # o
64 1 4 1.65042 3.30023 12.8298 16.2948 # Al
65 1 4 1.65042 3.30023 19.2447 8.06917 # Al
66 1 4 1.65042 1.67249e-15 19.2447 8.06917 # Al
67 1 6 -0.98778 1.65011 24.8471 16.2927 # OH
68 1 1 0.43303 1.65011 23.8981 16.2927 # HH
69 1 5 -0.60619 0.571995 14.0299 14.8978 # o
70 1 5 -0.60619 0.513251 14.0568 1.16344 # o
71 1 5 -0.60619 6.0872 24.4326 1.16344 # o
72 1 5 -0.60619 2.78777 18.0187 9.38843 # o
73 1 5 -0.60619 2.72902 14.0299 14.8978 # o
74 1 5 -0.60619 0.513251 18.0187 9.38843 # o
75 1 5 -0.60619 2.78697 14.0568 1.16344 # o
76 1 5 -0.60619 3.81348 24.4326 1.16344 # o
77 1 6 -0.98778 1.65011 20.0572 8.06706 # OH
78 1 1 0.43303 1.65011 21.0062 8.06706 # HH
79 1 5 -0.60619 2.72823 18.0446 6.67215 # o
80 1 5 -0.60619 0.571203 18.0446 6.67215 # o
81 1 6 -0.98778 4.95034 18.4322 8.06706 # OH
82 1 1 0.43303 4.95034 17.4832 8.06706 # HH
83 1 5 -0.60619 3.87222 20.4448 6.67215 # o
84 1 5 -0.60619 6.02925 20.4448 6.67215 # o
85 1 4 1.65042 2.79072e-15 12.8298 32.7461 # Al
86 1 6 -0.98778 4.95034 13.6423 32.744 # OH
87 1 1 0.43303 4.95034 14.5913 32.744 # HH
88 1 5 -0.60619 6.02846 24.4595 31.3491 # o
89 1 5 -0.60619 3.81268 20.4707 25.8397 # o
90 1 5 -0.60619 3.87143 24.4595 31.3491 # o
91 1 5 -0.60619 6.0872 20.4707 25.8397 # o
92 1 4 1.65042 3.30023 12.8298 32.7461 # Al
93 1 4 1.65042 3.30023 19.2447 24.5205 # Al
94 1 4 1.65042 2.67984e-15 19.2447 24.5205 # Al
95 1 6 -0.98778 1.65011 24.8471 32.744 # OH
96 1 1 0.43303 1.65011 23.8981 32.744 # HH
97 1 5 -0.60619 0.571995 14.0299 31.3491 # o
98 1 5 -0.60619 0.513251 14.0568 17.6147 # o
99 1 5 -0.60619 6.0872 24.4326 17.6147 # o
100 1 5 -0.60619 2.78777 18.0187 25.8397 # o
101 1 5 -0.60619 2.72902 14.0299 31.3491 # o
102 1 5 -0.60619 0.513251 18.0187 25.8397 # o
103 1 5 -0.60619 2.78697 14.0568 17.6147 # o
104 1 5 -0.60619 3.81348 24.4326 17.6147 # o
105 1 6 -0.98778 1.65011 20.0572 24.5184 # OH
106 1 1 0.43303 1.65011 21.0062 24.5184 # HH
107 1 5 -0.60619 2.72823 18.0446 23.1235 # o
108 1 5 -0.60619 0.571203 18.0446 23.1235 # o
109 1 6 -0.98778 4.95034 18.4322 24.5184 # OH
110 1 1 0.43303 4.95034 17.4832 24.5184 # HH
111 1 5 -0.60619 3.87222 20.4448 23.1235 # o
112 1 5 -0.60619 6.02925 20.4448 23.1235 # o
113 1 4 1.65042 6.60045 9.9777e-16 16.2948 # Al
114 1 6 -0.98778 11.5508 0.812511 16.2927 # OH
115 1 1 0.43303 11.5508 1.76153 16.2927 # HH
116 1 5 -0.60619 12.6289 11.6297 14.8978 # o
117 1 5 -0.60619 10.4131 7.64092 9.38843 # o
118 1 5 -0.60619 10.4719 11.6297 14.8978 # o
119 1 5 -0.60619 12.6876 7.64092 9.38843 # o
120 1 4 1.65042 9.90068 9.9777e-16 16.2948 # Al
121 1 4 1.65042 9.90067 6.4149 8.06917 # Al
122 1 4 1.65042 6.60045 6.4149 8.06917 # Al
123 1 6 -0.98778 8.25056 12.0173 16.2927 # OH
124 1 1 0.43303 8.25056 11.0683 16.2927 # HH
125 1 5 -0.60619 7.17244 1.2001 14.8978 # o
126 1 5 -0.60619 7.1137 1.22704 1.16344 # o
127 1 5 -0.60619 12.6876 11.6028 1.16344 # o
128 1 5 -0.60619 9.38822 5.18888 9.38843 # o
129 1 5 -0.60619 9.32947 1.2001 14.8978 # o
130 1 5 -0.60619 7.1137 5.18888 9.38843 # o
131 1 5 -0.60619 9.38742 1.22704 1.16344 # o
132 1 5 -0.60619 10.4139 11.6028 1.16344 # o
133 1 6 -0.98778 8.25056 7.22741 8.06706 # OH
134 1 1 0.43303 8.25056 8.17643 8.06706 # HH
135 1 5 -0.60619 9.32868 5.2148 6.67215 # o
136 1 5 -0.60619 7.17165 5.2148 6.67215 # o
137 1 6 -0.98778 11.5508 5.60239 8.06706 # OH
138 1 1 0.43303 11.5508 4.65337 8.06706 # HH
139 1 5 -0.60619 10.4727 7.615 6.67215 # o
140 1 5 -0.60619 12.6297 7.615 6.67215 # o
141 1 4 1.65042 6.60045 2.00512e-15 32.7461 # Al
142 1 6 -0.98778 11.5508 0.812511 32.744 # OH
143 1 1 0.43303 11.5508 1.76153 32.744 # HH
144 1 5 -0.60619 12.6289 11.6297 31.3491 # o
145 1 5 -0.60619 10.4131 7.64092 25.8397 # o
146 1 5 -0.60619 10.4719 11.6297 31.3491 # o
147 1 5 -0.60619 12.6876 7.64092 25.8397 # o
148 1 4 1.65042 9.90068 2.00512e-15 32.7461 # Al
149 1 4 1.65042 9.90068 6.4149 24.5205 # Al
150 1 4 1.65042 6.60045 6.4149 24.5205 # Al
151 1 6 -0.98778 8.25056 12.0173 32.744 # OH
152 1 1 0.43303 8.25056 11.0683 32.744 # HH
153 1 5 -0.60619 7.17244 1.2001 31.3491 # o
154 1 5 -0.60619 7.1137 1.22704 17.6147 # o
155 1 5 -0.60619 12.6876 11.6028 17.6147 # o
156 1 5 -0.60619 9.38822 5.18888 25.8397 # o
157 1 5 -0.60619 9.32947 1.2001 31.3491 # o
158 1 5 -0.60619 7.1137 5.18888 25.8397 # o
159 1 5 -0.60619 9.38742 1.22704 17.6147 # o
160 1 5 -0.60619 10.4139 11.6028 17.6147 # o
161 1 6 -0.98778 8.25056 7.22741 24.5184 # OH
162 1 1 0.43303 8.25056 8.17643 24.5184 # HH
163 1 5 -0.60619 9.32868 5.2148 23.1235 # o
164 1 5 -0.60619 7.17165 5.2148 23.1235 # o
165 1 6 -0.98778 11.5508 5.60239 24.5184 # OH
166 1 1 0.43303 11.5508 4.65337 24.5184 # HH
167 1 5 -0.60619 10.4727 7.615 23.1235 # o
168 1 5 -0.60619 12.6297 7.615 23.1235 # o
169 1 4 1.65042 6.60045 12.8298 16.2948 # Al
170 1 6 -0.98778 11.5508 13.6423 16.2927 # OH
171 1 1 0.43303 11.5508 14.5913 16.2927 # HH
172 1 5 -0.60619 12.6289 24.4595 14.8978 # o
173 1 5 -0.60619 10.4131 20.4707 9.38843 # o
174 1 5 -0.60619 10.4719 24.4595 14.8978 # o
175 1 5 -0.60619 12.6876 20.4707 9.38843 # o
176 1 4 1.65042 9.90068 12.8298 16.2948 # Al
177 1 4 1.65042 9.90068 19.2447 8.06917 # Al
178 1 4 1.65042 6.60045 19.2447 8.06917 # Al
179 1 6 -0.98778 8.25056 24.8471 16.2927 # OH
180 1 1 0.43303 8.25056 23.8981 16.2927 # HH
181 1 5 -0.60619 7.17244 14.0299 14.8978 # o
182 1 5 -0.60619 7.1137 14.0568 1.16344 # o
183 1 5 -0.60619 12.6876 24.4326 1.16344 # o
184 1 5 -0.60619 9.38822 18.0187 9.38843 # o
185 1 5 -0.60619 9.32947 14.0299 14.8978 # o
186 1 5 -0.60619 7.1137 18.0187 9.38843 # o
187 1 5 -0.60619 9.38742 14.0568 1.16344 # o
188 1 5 -0.60619 10.4139 24.4326 1.16344 # o
189 1 6 -0.98778 8.25056 20.0572 8.06706 # OH
190 1 1 0.43303 8.25056 21.0062 8.06706 # HH
191 1 5 -0.60619 9.32868 18.0446 6.67215 # o
192 1 5 -0.60619 7.17165 18.0446 6.67215 # o
193 1 6 -0.98778 11.5508 18.4322 8.06706 # OH
194 1 1 0.43303 11.5508 17.4832 8.06706 # HH
195 1 5 -0.60619 10.4727 20.4448 6.67215 # o
196 1 5 -0.60619 12.6297 20.4448 6.67215 # o
197 1 4 1.65042 6.60045 12.8298 32.7461 # Al
198 1 6 -0.98778 11.5508 13.6423 32.744 # OH
199 1 1 0.43303 11.5508 14.5913 32.744 # HH
200 1 5 -0.60619 12.6289 24.4595 31.3491 # o
201 1 5 -0.60619 10.4131 20.4707 25.8397 # o
202 1 5 -0.60619 10.4719 24.4595 31.3491 # o
203 1 5 -0.60619 12.6876 20.4707 25.8397 # o
204 1 4 1.65042 9.90068 12.8298 32.7461 # Al
205 1 4 1.65042 9.90068 19.2447 24.5205 # Al
206 1 4 1.65042 6.60045 19.2447 24.5205 # Al
207 1 6 -0.98778 8.25056 24.8471 32.744 # OH
208 1 1 0.43303 8.25056 23.8981 32.744 # HH
209 1 5 -0.60619 7.17244 14.0299 31.3491 # o
210 1 5 -0.60619 7.1137 14.0568 17.6147 # o
211 1 5 -0.60619 12.6876 24.4326 17.6147 # o
212 1 5 -0.60619 9.38822 18.0187 25.8397 # o
213 1 5 -0.60619 9.32947 14.0299 31.3491 # o
214 1 5 -0.60619 7.1137 18.0187 25.8397 # o
215 1 5 -0.60619 9.38742 14.0568 17.6147 # o
216 1 5 -0.60619 10.4139 24.4326 17.6147 # o
217 1 6 -0.98778 8.25056 20.0572 24.5184 # OH
218 1 1 0.43303 8.25056 21.0062 24.5184 # HH
219 1 5 -0.60619 9.32868 18.0446 23.1235 # o
220 1 5 -0.60619 7.17165 18.0446 23.1235 # o
221 1 6 -0.98778 11.5508 18.4322 24.5184 # OH
222 1 1 0.43303 11.5508 17.4832 24.5184 # HH
223 1 5 -0.60619 10.4727 20.4448 23.1235 # o
224 1 5 -0.60619 12.6297 20.4448 23.1235 # o
225 1 4 1.65042 13.2009 9.9777e-16 16.2948 # Al
226 1 6 -0.98778 18.1512 0.812511 16.2927 # OH
227 1 1 0.43303 18.1512 1.76153 16.2927 # HH
228 1 5 -0.60619 19.2294 11.6297 14.8978 # o
229 1 5 -0.60619 17.0136 7.64092 9.38843 # o
230 1 5 -0.60619 17.0723 11.6297 14.8978 # o
231 1 5 -0.60619 19.2881 7.64092 9.38843 # o
232 1 4 1.65042 16.5011 9.9777e-16 16.2948 # Al
233 1 4 1.65042 16.5011 6.4149 8.06917 # Al
234 1 4 1.65042 13.2009 6.4149 8.06917 # Al
235 1 6 -0.98778 14.851 12.0173 16.2927 # OH
236 1 1 0.43303 14.851 11.0683 16.2927 # HH
237 1 5 -0.60619 13.7729 1.2001 14.8978 # o
238 1 5 -0.60619 13.7142 1.22704 1.16344 # o
239 1 5 -0.60619 19.2881 11.6028 1.16344 # o
240 1 5 -0.60619 15.9887 5.18888 9.38843 # o
241 1 5 -0.60619 15.9299 1.2001 14.8978 # o
242 1 5 -0.60619 13.7142 5.18888 9.38843 # o
243 1 5 -0.60619 15.9879 1.22704 1.16344 # o
244 1 5 -0.60619 17.0144 11.6028 1.16344 # o
245 1 6 -0.98778 14.851 7.22741 8.06706 # OH
246 1 1 0.43303 14.851 8.17643 8.06706 # HH
247 1 5 -0.60619 15.9291 5.2148 6.67215 # o
248 1 5 -0.60619 13.7721 5.2148 6.67215 # o
249 1 6 -0.98778 18.1512 5.60239 8.06706 # OH
250 1 1 0.43303 18.1512 4.65337 8.06706 # HH
251 1 5 -0.60619 17.0731 7.615 6.67215 # o
252 1 5 -0.60619 19.2301 7.615 6.67215 # o
253 1 4 1.65042 13.2009 2.00512e-15 32.7461 # Al
254 1 6 -0.98778 18.1512 0.812511 32.744 # OH
255 1 1 0.43303 18.1512 1.76153 32.744 # HH
256 1 5 -0.60619 19.2294 11.6297 31.3491 # o
257 1 5 -0.60619 17.0136 7.64092 25.8397 # o
258 1 5 -0.60619 17.0723 11.6297 31.3491 # o
259 1 5 -0.60619 19.2881 7.64092 25.8397 # o
260 1 4 1.65042 16.5011 2.00512e-15 32.7461 # Al
261 1 4 1.65042 16.5011 6.4149 24.5205 # Al
262 1 4 1.65042 13.2009 6.4149 24.5205 # Al
263 1 6 -0.98778 14.851 12.0173 32.744 # OH
264 1 1 0.43303 14.851 11.0683 32.744 # HH
265 1 5 -0.60619 13.7729 1.2001 31.3491 # o
266 1 5 -0.60619 13.7142 1.22704 17.6147 # o
267 1 5 -0.60619 19.2881 11.6028 17.6147 # o
268 1 5 -0.60619 15.9887 5.18888 25.8397 # o
269 1 5 -0.60619 15.9299 1.2001 31.3491 # o
270 1 5 -0.60619 13.7142 5.18888 25.8397 # o
271 1 5 -0.60619 15.9879 1.22704 17.6147 # o
272 1 5 -0.60619 17.0144 11.6028 17.6147 # o
273 1 6 -0.98778 14.851 7.22741 24.5184 # OH
274 1 1 0.43303 14.851 8.17643 24.5184 # HH
275 1 5 -0.60619 15.9291 5.2148 23.1235 # o
276 1 5 -0.60619 13.7721 5.2148 23.1235 # o
277 1 6 -0.98778 18.1512 5.60239 24.5184 # OH
278 1 1 0.43303 18.1512 4.65337 24.5184 # HH
279 1 5 -0.60619 17.0731 7.615 23.1235 # o
280 1 5 -0.60619 19.2301 7.615 23.1235 # o
281 1 4 1.65042 13.2009 12.8298 16.2948 # Al
282 1 6 -0.98778 18.1512 13.6423 16.2927 # OH
283 1 1 0.43303 18.1512 14.5913 16.2927 # HH
284 1 5 -0.60619 19.2294 24.4595 14.8978 # o
285 1 5 -0.60619 17.0136 20.4707 9.38843 # o
286 1 5 -0.60619 17.0723 24.4595 14.8978 # o
287 1 5 -0.60619 19.2881 20.4707 9.38843 # o
288 1 4 1.65042 16.5011 12.8298 16.2948 # Al
289 1 4 1.65042 16.5011 19.2447 8.06917 # Al
290 1 4 1.65042 13.2009 19.2447 8.06917 # Al
291 1 6 -0.98778 14.851 24.8471 16.2927 # OH
292 1 1 0.43303 14.851 23.8981 16.2927 # HH
293 1 5 -0.60619 13.7729 14.0299 14.8978 # o
294 1 5 -0.60619 13.7142 14.0568 1.16344 # o
295 1 5 -0.60619 19.2881 24.4326 1.16344 # o
296 1 5 -0.60619 15.9887 18.0187 9.38843 # o
297 1 5 -0.60619 15.9299 14.0299 14.8978 # o
298 1 5 -0.60619 13.7142 18.0187 9.38843 # o
299 1 5 -0.60619 15.9879 14.0568 1.16344 # o
300 1 5 -0.60619 17.0144 24.4326 1.16344 # o
301 1 6 -0.98778 14.851 20.0572 8.06706 # OH
302 1 1 0.43303 14.851 21.0062 8.06706 # HH
303 1 5 -0.60619 15.9291 18.0446 6.67215 # o
304 1 5 -0.60619 13.7721 18.0446 6.67215 # o
305 1 6 -0.98778 18.1512 18.4322 8.06706 # OH
306 1 1 0.43303 18.1512 17.4832 8.06706 # HH
307 1 5 -0.60619 17.0731 20.4448 6.67215 # o
308 1 5 -0.60619 19.2301 20.4448 6.67215 # o
309 1 4 1.65042 13.2009 12.8298 32.7461 # Al
310 1 6 -0.98778 18.1512 13.6423 32.744 # OH
311 1 1 0.43303 18.1512 14.5913 32.744 # HH
312 1 5 -0.60619 19.2294 24.4595 31.3491 # o
313 1 5 -0.60619 17.0136 20.4707 25.8397 # o
314 1 5 -0.60619 17.0723 24.4595 31.3491 # o
315 1 5 -0.60619 19.2881 20.4707 25.8397 # o
316 1 4 1.65042 16.5011 12.8298 32.7461 # Al
317 1 4 1.65042 16.5011 19.2447 24.5205 # Al
318 1 4 1.65042 13.2009 19.2447 24.5205 # Al
319 1 6 -0.98778 14.851 24.8471 32.744 # OH
320 1 1 0.43303 14.851 23.8981 32.744 # HH
321 1 5 -0.60619 13.7729 14.0299 31.3491 # o
322 1 5 -0.60619 13.7142 14.0568 17.6147 # o
323 1 5 -0.60619 19.2881 24.4326 17.6147 # o
324 1 5 -0.60619 15.9887 18.0187 25.8397 # o
325 1 5 -0.60619 15.9299 14.0299 31.3491 # o
326 1 5 -0.60619 13.7142 18.0187 25.8397 # o
327 1 5 -0.60619 15.9879 14.0568 17.6147 # o
328 1 5 -0.60619 17.0144 24.4326 17.6147 # o
329 1 6 -0.98778 14.851 20.0572 24.5184 # OH
330 1 1 0.43303 14.851 21.0062 24.5184 # HH
331 1 5 -0.60619 15.9291 18.0446 23.1235 # o
332 1 5 -0.60619 13.7721 18.0446 23.1235 # o
333 1 6 -0.98778 18.1512 18.4322 24.5184 # OH
334 1 1 0.43303 18.1512 17.4832 24.5184 # HH
335 1 5 -0.60619 17.0731 20.4448 23.1235 # o
336 1 5 -0.60619 19.2301 20.4448 23.1235 # o
337 1 4 1.65042 19.8013 9.9777e-16 16.2948 # Al
338 1 6 -0.98778 24.7517 0.812511 16.2927 # OH
339 1 1 0.43303 24.7517 1.76153 16.2927 # HH
340 1 5 -0.60619 25.8298 11.6297 14.8978 # o
341 1 5 -0.60619 23.614 7.64092 9.38843 # o
342 1 5 -0.60619 23.6728 11.6297 14.8978 # o
343 1 5 -0.60619 25.8885 7.64092 9.38843 # o
344 1 4 1.65042 23.1016 9.9777e-16 16.2948 # Al
345 1 4 1.65042 23.1016 6.4149 8.06917 # Al
346 1 4 1.65042 19.8013 6.4149 8.06917 # Al
347 1 6 -0.98778 21.4515 12.0173 16.2927 # OH
348 1 1 0.43303 21.4515 11.0683 16.2927 # HH
349 1 5 -0.60619 20.3733 1.2001 14.8978 # o
350 1 5 -0.60619 20.3146 1.22704 1.16344 # o
351 1 5 -0.60619 25.8885 11.6028 1.16344 # o
352 1 5 -0.60619 22.5891 5.18888 9.38843 # o
353 1 5 -0.60619 22.5304 1.2001 14.8978 # o
354 1 5 -0.60619 20.3146 5.18888 9.38843 # o
355 1 5 -0.60619 22.5883 1.22704 1.16344 # o
356 1 5 -0.60619 23.6148 11.6028 1.16344 # o
357 1 6 -0.98778 21.4515 7.22741 8.06706 # OH
358 1 1 0.43303 21.4515 8.17643 8.06706 # HH
359 1 5 -0.60619 22.5296 5.2148 6.67215 # o
360 1 5 -0.60619 20.3726 5.2148 6.67215 # o
361 1 6 -0.98778 24.7517 5.60239 8.06706 # OH
362 1 1 0.43303 24.7517 4.65337 8.06706 # HH
363 1 5 -0.60619 23.6736 7.615 6.67215 # o
364 1 5 -0.60619 25.8306 7.615 6.67215 # o
365 1 4 1.65042 19.8014 2.00512e-15 32.7461 # Al
366 1 6 -0.98778 24.7517 0.812511 32.744 # OH
367 1 1 0.43303 24.7517 1.76153 32.744 # HH
368 1 5 -0.60619 25.8298 11.6297 31.3491 # o
369 1 5 -0.60619 23.614 7.64092 25.8397 # o
370 1 5 -0.60619 23.6728 11.6297 31.3491 # o
371 1 5 -0.60619 25.8885 7.64092 25.8397 # o
372 1 4 1.65042 23.1016 2.00512e-15 32.7461 # Al
373 1 4 1.65042 23.1016 6.4149 24.5205 # Al
374 1 4 1.65042 19.8013 6.4149 24.5205 # Al
375 1 6 -0.98778 21.4515 12.0173 32.744 # OH
376 1 1 0.43303 21.4515 11.0683 32.744 # HH
377 1 5 -0.60619 20.3733 1.2001 31.3491 # o
378 1 5 -0.60619 20.3146 1.22704 17.6147 # o
379 1 5 -0.60619 25.8885 11.6028 17.6147 # o
380 1 5 -0.60619 22.5891 5.18888 25.8397 # o
381 1 5 -0.60619 22.5304 1.2001 31.3491 # o
382 1 5 -0.60619 20.3146 5.18888 25.8397 # o
383 1 5 -0.60619 22.5883 1.22704 17.6147 # o
384 1 5 -0.60619 23.6148 11.6028 17.6147 # o
385 1 6 -0.98778 21.4515 7.22741 24.5184 # OH
386 1 1 0.43303 21.4515 8.17643 24.5184 # HH
387 1 5 -0.60619 22.5296 5.2148 23.1235 # o
388 1 5 -0.60619 20.3726 5.2148 23.1235 # o
389 1 6 -0.98778 24.7517 5.60239 24.5184 # OH
390 1 1 0.43303 24.7517 4.65337 24.5184 # HH
391 1 5 -0.60619 23.6736 7.615 23.1235 # o
392 1 5 -0.60619 25.8306 7.615 23.1235 # o
393 1 4 1.65042 19.8013 12.8298 16.2948 # Al
394 1 6 -0.98778 24.7517 13.6423 16.2927 # OH
395 1 1 0.43303 24.7517 14.5913 16.2927 # HH
396 1 5 -0.60619 25.8298 24.4595 14.8978 # o
397 1 5 -0.60619 23.614 20.4707 9.38843 # o
398 1 5 -0.60619 23.6728 24.4595 14.8978 # o
399 1 5 -0.60619 25.8885 20.4707 9.38843 # o
400 1 4 1.65042 23.1016 12.8298 16.2948 # Al
401 1 4 1.65042 23.1016 19.2447 8.06917 # Al
402 1 4 1.65042 19.8013 19.2447 8.06917 # Al
403 1 6 -0.98778 21.4515 24.8471 16.2927 # OH
404 1 1 0.43303 21.4515 23.8981 16.2927 # HH
405 1 5 -0.60619 20.3733 14.0299 14.8978 # o
406 1 5 -0.60619 20.3146 14.0568 1.16344 # o
407 1 5 -0.60619 25.8885 24.4326 1.16344 # o
408 1 5 -0.60619 22.5891 18.0187 9.38843 # o
409 1 5 -0.60619 22.5304 14.0299 14.8978 # o
410 1 5 -0.60619 20.3146 18.0187 9.38843 # o
411 1 5 -0.60619 22.5883 14.0568 1.16344 # o
412 1 5 -0.60619 23.6148 24.4326 1.16344 # o
413 1 6 -0.98778 21.4515 20.0572 8.06706 # OH
414 1 1 0.43303 21.4515 21.0062 8.06706 # HH
415 1 5 -0.60619 22.5296 18.0446 6.67215 # o
416 1 5 -0.60619 20.3726 18.0446 6.67215 # o
417 1 6 -0.98778 24.7517 18.4322 8.06706 # OH
418 1 1 0.43303 24.7517 17.4832 8.06706 # HH
419 1 5 -0.60619 23.6736 20.4448 6.67215 # o
420 1 5 -0.60619 25.8306 20.4448 6.67215 # o
421 1 4 1.65042 19.8014 12.8298 32.7461 # Al
422 1 6 -0.98778 24.7517 13.6423 32.744 # OH
423 1 1 0.43303 24.7517 14.5913 32.744 # HH
424 1 5 -0.60619 25.8298 24.4595 31.3491 # o
425 1 5 -0.60619 23.614 20.4707 25.8397 # o
426 1 5 -0.60619 23.6728 24.4595 31.3491 # o
427 1 5 -0.60619 25.8885 20.4707 25.8397 # o
428 1 4 1.65042 23.1016 12.8298 32.7461 # Al
429 1 4 1.65042 23.1016 19.2447 24.5205 # Al
430 1 4 1.65042 19.8013 19.2447 24.5205 # Al
431 1 6 -0.98778 21.4515 24.8471 32.744 # OH
432 1 1 0.43303 21.4515 23.8981 32.744 # HH
433 1 5 -0.60619 20.3733 14.0299 31.3491 # o
434 1 5 -0.60619 20.3146 14.0568 17.6147 # o
435 1 5 -0.60619 25.8885 24.4326 17.6147 # o
436 1 5 -0.60619 22.5891 18.0187 25.8397 # o
437 1 5 -0.60619 22.5304 14.0299 31.3491 # o
438 1 5 -0.60619 20.3146 18.0187 25.8397 # o
439 1 5 -0.60619 22.5883 14.0568 17.6147 # o
440 1 5 -0.60619 23.6148 24.4326 17.6147 # o
441 1 6 -0.98778 21.4515 20.0572 24.5184 # OH
442 1 1 0.43303 21.4515 21.0062 24.5184 # HH
443 1 5 -0.60619 22.5296 18.0446 23.1235 # o
444 1 5 -0.60619 20.3726 18.0446 23.1235 # o
445 1 6 -0.98778 24.7517 18.4322 24.5184 # OH
446 1 1 0.43303 24.7517 17.4832 24.5184 # HH
447 1 5 -0.60619 23.6736 20.4448 23.1235 # o
448 1 5 -0.60619 25.8306 20.4448 23.1235 # o
449 2 2 0.64584 4.95034 11.2855 14.4401 # c
450 2 2 0.64584 4.95034 7.97 9.86338 # c
451 2 3 0.010785 4.97034 10.4761 13.2173 # C
452 2 3 0.010785 4.98954 8.99239 11.0679 # C
453 2 3 -0.17502 4.01558 10.0764 10.867 # C
454 2 7 0.08883 3.10888 9.69893 10.7445 # H
455 2 7 0.08883 4.24923 10.5971 10.0585 # H
456 2 3 -0.17502 4.04035 10.9906 12.1044 # C
457 2 7 0.08883 3.12089 11.07 12.4647 # H
458 2 7 0.08883 4.3357 11.8952 11.8313 # H
459 2 3 -0.17502 4.56767 9.13298 13.488 # C
460 2 7 0.08883 3.65566 9.14111 13.8751 # H
461 2 3 -0.17502 4.57514 8.24505 12.2229 # C
462 2 7 0.08883 5.19151 7.48311 12.3606 # H
463 2 3 -0.17502 6.35046 10.3863 12.5422 # C
464 2 7 0.08883 7.00992 10.0526 13.2017 # H
465 2 7 0.08883 6.63306 11.2942 12.2667 # H
466 2 7 0.08883 5.17836 8.74277 14.1636 # H
467 2 3 -0.17502 6.36212 9.46256 11.3117 # C
468 2 7 0.08883 6.9605 8.69135 11.4744 # H
469 2 7 0.08883 6.69664 9.9569 10.5223 # H
470 2 7 0.08883 3.667 7.88192 12.0717 # H
471 3 2 0.64584 1.65011 1.54432 14.4401 # c
472 3 2 0.64584 1.65011 4.8598 9.86338 # c
473 3 3 0.010785 1.62834 2.35417 13.2177 # C
474 3 3 0.010785 1.60745 3.83836 11.0686 # C
475 3 3 -0.17502 2.55244 2.73204 10.8515 # C
476 3 7 0.08883 3.46547 3.08837 10.7137 # H
477 3 7 0.08883 2.29317 2.21703 10.0472 # H
478 3 3 -0.17502 2.52726 1.81844 12.0894 # C
479 3 7 0.08883 3.45056 1.71764 12.4342 # H
480 3 7 0.08883 2.20642 0.92098 11.8214 # H
481 3 3 -0.17502 2.06661 3.68753 13.4813 # C
482 3 7 0.08883 2.98457 3.65814 13.8529 # H
483 3 3 -0.17502 2.05848 4.57564 12.2163 # C
484 3 7 0.08883 1.46239 5.35167 12.3643 # H
485 3 3 -0.17502 0.239514 2.47619 12.5658 # C
486 3 7 0.08883 -0.400825 2.82496 13.2363 # H
487 3 7 0.08883 -0.068702 1.5751 12.2953 # H
488 3 7 0.08883 1.47661 4.0917 14.167 # H
489 3 3 -0.17502 0.228614 3.40016 11.3355 # C
490 3 7 0.08883 -0.348869 4.18504 11.5082 # H
491 3 7 0.08883 -0.130544 2.91388 10.552 # H
492 3 7 0.08883 2.97214 4.9176 12.0498 # H
493 4 2 0.64584 1.65011 4.87058 6.21448 # c
494 4 2 0.64584 1.65011 1.5551 1.63773 # c
495 4 3 0.010785 1.6193 3.96466 5.06163 # C
496 4 3 0.010785 1.58972 2.38827 2.97929 # C
497 4 3 -0.17502 2.36865 1.7308 4.03998 # C
498 4 7 0.08883 3.30263 1.59688 3.74106 # H
499 4 7 0.08883 1.97761 0.846162 4.24956 # H
500 4 3 -0.17502 2.34169 2.62546 5.29153 # C
501 4 7 0.08883 3.27262 2.80721 5.57772 # H
502 4 7 0.08883 1.89054 2.13884 6.02626 # H
503 4 3 -0.17502 2.23965 4.56536 3.92419 # C
504 4 7 0.08883 3.17645 4.79479 4.1509 # H
505 4 3 -0.17502 2.22815 3.64139 2.68519 # C
506 4 7 0.08883 1.74738 4.0903 1.94574 # H
507 4 3 -0.17502 0.203529 3.55649 4.61707 # C
508 4 7 0.08883 -0.326951 4.37459 4.44228 # H
509 4 7 0.08883 -0.235822 3.06474 5.35552 # H
510 4 7 0.08883 1.76709 5.40848 3.70633 # H
511 4 3 -0.17502 0.19677 2.67651 3.35489 # C
512 4 7 0.08883 -0.262316 3.14918 2.61655 # H
513 4 7 0.08883 -0.28763 1.83253 3.53502 # H
514 4 7 0.08883 3.15842 3.47588 2.39083 # H
515 5 2 0.64584 4.95034 7.95922 6.21448 # c
516 5 2 0.64584 4.95034 11.2747 1.63773 # c
517 5 3 0.010785 4.96521 8.87003 5.06517 # C
518 5 3 0.010785 4.97948 10.4511 2.98623 # C
519 5 3 -0.17502 3.92732 10.9126 3.90495 # C
520 5 7 0.08883 3.04279 10.8519 3.46504 # H
521 5 7 0.08883 4.08688 11.8562 4.15722 # H
522 5 3 -0.17502 3.95083 10.0233 5.16041 # C
523 5 7 0.08883 3.04649 9.64517 5.30431 # H
524 5 7 0.08883 4.17214 10.5819 5.94728 # H
525 5 3 -0.17502 4.66588 8.1709 3.85642 # C
526 5 7 0.08883 3.77496 7.74585 3.94143 # H
527 5 3 -0.17502 4.67142 9.09669 2.61874 # C
528 5 7 0.08883 5.34282 8.7711 1.96863 # H
529 5 3 -0.17502 6.31425 9.57411 4.83498 # C
530 5 7 0.08883 7.02527 8.88888 4.75644 # H
531 5 7 0.08883 6.52251 10.1352 5.62364 # H
532 5 7 0.08883 5.33279 7.44973 3.72692 # H
533 5 3 -0.17502 6.328 10.4563 3.57438 # C
534 5 7 0.08883 6.9833 10.1029 2.92244 # H
535 5 7 0.08883 6.59076 11.3802 3.81244 # H
536 5 7 0.08883 3.78313 9.06756 2.18339 # H
537 6 2 0.64584 4.95034 11.2855 30.8914 # c
538 6 2 0.64584 4.95034 7.97 26.3147 # c
539 6 3 0.010785 4.97677 10.4741 29.6701 # C
540 6 3 0.010785 5.00213 8.98849 27.522 # C
541 6 3 -0.17502 4.13878 10.1513 27.264 # C
542 6 7 0.08883 3.21245 9.85243 27.0846 # H
543 6 7 0.08883 4.46575 10.648 26.473 # H
544 6 3 -0.17502 4.16493 11.0633 28.503 # C
545 6 7 0.08883 3.23508 11.222 28.8059 # H
546 6 7 0.08883 4.55292 11.9386 28.2511 # H
547 6 3 -0.17502 4.44471 9.17108 29.9117 # C
548 6 7 0.08883 3.51451 9.2582 30.2415 # H
549 6 3 -0.17502 4.45457 8.2824 28.6472 # C
550 6 7 0.08883 4.99379 7.4709 28.8208 # H
551 6 3 -0.17502 6.38331 10.2648 29.0815 # C
552 6 7 0.08883 6.96969 9.87769 29.7798 # H
553 6 7 0.08883 6.75906 11.1445 28.8264 # H
554 6 7 0.08883 4.97674 8.73186 30.6228 # H
555 6 3 -0.17502 6.39214 9.34019 27.8516 # C
556 6 7 0.08883 6.91114 8.52106 28.0491 # H
557 6 7 0.08883 6.81598 9.80201 27.0858 # H
558 6 7 0.08883 3.52982 7.99787 28.439 # H
559 7 2 0.64584 1.65011 1.54432 30.8914 # c
560 7 2 0.64584 1.65011 4.8598 26.3147 # c
561 7 3 0.010785 1.63696 2.35222 29.6676 # C
562 7 3 0.010785 1.62433 3.83454 27.5171 # C
563 7 3 -0.17502 2.70073 2.84101 27.3818 # C
564 7 7 0.08883 3.57665 3.29717 27.3163 # H
565 7 7 0.08883 2.56584 2.30401 26.5615 # H
566 7 3 -0.17502 2.67767 1.92472 28.6176 # C
567 7 7 0.08883 3.5757 1.92555 29.0361 # H
568 7 7 0.08883 2.4811 0.99839 28.3288 # H
569 7 3 -0.17502 1.90177 3.72481 29.9596 # C
570 7 7 0.08883 2.78443 3.7959 30.404 # H
571 7 3 -0.17502 1.89686 4.6122 28.6941 # C
572 7 7 0.08883 1.2083 5.31655 28.7901 # H
573 7 3 -0.17502 0.300149 2.32216 28.9056 # C
574 7 7 0.08883 -0.426826 2.59463 29.5208 # H
575 7 7 0.08883 0.1167 1.39363 28.6151 # H
576 7 7 0.08883 1.21729 4.05787 30.5938 # H
577 7 3 -0.17502 0.285719 3.24471 27.6742 # C
578 7 7 0.08883 -0.387375 3.95981 27.7963 # H
579 7 7 0.08883 0.0470123 2.72507 26.8665 # H
580 7 7 0.08883 2.7773 5.05427 28.6001 # H
581 8 2 0.64584 1.65011 4.87058 22.6658 # c
582 8 2 0.64584 1.65011 1.5551 18.089 # c
583 8 3 0.010785 1.6347 3.95988 21.5164 # C
584 8 3 0.010785 1.61992 2.37889 19.4374 # C
585 8 3 -0.17502 2.66425 1.91015 20.3614 # C
586 8 7 0.08883 3.55136 1.96474 19.9259 # H
587 8 7 0.08883 2.49691 0.967719 20.6128 # H
588 8 3 -0.17502 2.6406 2.79957 21.6167 # C
589 8 7 0.08883 3.5468 3.1715 21.7651 # H
590 8 7 0.08883 2.41149 2.24254 22.4024 # H
591 8 3 -0.17502 1.94491 4.6569 20.3092 # C
592 8 7 0.08883 2.83831 5.07579 20.3986 # H
593 8 3 -0.17502 1.93915 3.73114 19.0715 # C
594 8 7 0.08883 1.27329 4.06136 18.418 # H
595 8 3 -0.17502 0.281999 3.26513 21.2794 # C
596 8 7 0.08883 -0.423866 3.95525 21.1974 # H
597 8 7 0.08883 0.0659132 2.70553 22.067 # H
598 8 7 0.08883 1.28364 5.38266 20.1763 # H
599 8 3 -0.17502 0.268456 2.38305 20.0188 # C
600 8 7 0.08883 -0.381106 2.74096 19.3636 # H
601 8 7 0.08883 -0.00186985 1.46094 20.2555 # H
602 8 7 0.08883 2.82979 3.75413 18.6406 # H
603 9 2 0.64584 4.95034 7.95922 22.6658 # c
604 9 2 0.64584 4.95034 11.2747 18.089 # c
605 9 3 0.010785 4.9712 8.86864 21.5155 # C
606 9 3 0.010785 4.99122 10.4484 19.4356 # C
607 9 3 -0.17502 4.03125 10.988 20.4109 # C
608 9 7 0.08883 3.12138 10.997 20.0215 # H
609 9 7 0.08883 4.27737 11.9159 20.6518 # H
610 9 3 -0.17502 4.05622 10.0969 21.665 # C
611 9 7 0.08883 3.1348 9.78964 21.8603 # H
612 9 7 0.08883 4.36399 10.6349 22.437 # H
613 9 3 -0.17502 4.55119 8.19745 20.327 # C
614 9 7 0.08883 3.63619 7.84255 20.4628 # H
615 9 3 -0.17502 4.55898 9.12273 19.0889 # C
616 9 7 0.08883 5.16555 8.74749 18.4028 # H
617 9 3 -0.17502 6.3557 9.46655 21.2084 # C
618 9 7 0.08883 7.00593 8.72844 21.0915 # H
619 9 7 0.08883 6.65078 10.0081 21.9829 # H
620 9 7 0.08883 5.15188 7.42705 20.1618 # H
621 9 3 -0.17502 6.36699 10.3477 19.9471 # C
622 9 7 0.08883 6.95527 9.94604 19.2601 # H
623 9 7 0.08883 6.71352 11.248 20.168 # H
624 9 7 0.08883 3.64806 9.16348 18.7042 # H
625 10 2 0.64584 4.95034 24.1153 14.4401 # c
626 10 2 0.64584 4.95034 20.7998 9.86338 # c
627 10 3 0.010785 4.98379 23.301 13.2209 # C
628 10 3 0.010785 5.0159 21.8125 11.0749 # C
629 10 3 -0.17502 4.29169 23.0537 10.7602 # C
630 10 7 0.08883 3.35561 22.8467 10.5141 # H
631 10 7 0.08883 4.72146 23.513 9.99615 # H
632 10 3 -0.17502 4.31907 23.963 12.0011 # C
633 10 7 0.08883 3.39013 24.2135 12.2375 # H
634 10 7 0.08883 4.80823 24.795 11.7806 # H
635 10 3 -0.17502 4.31029 22.0574 13.4195 # C
636 10 7 0.08883 3.37204 22.2368 13.6825 # H
637 10 3 -0.17502 4.32277 21.1677 12.1557 # C
638 10 7 0.08883 4.76582 20.3077 12.3644 # H
639 10 3 -0.17502 6.40127 22.9522 12.7333 # C
640 10 7 0.08883 6.89548 22.5118 13.4702 # H
641 10 7 0.08883 6.87894 23.7898 12.5088 # H
642 10 7 0.08883 4.74452 21.5705 14.1651 # H
643 10 3 -0.17502 6.40673 22.0269 11.504 # C
644 10 7 0.08883 6.82725 21.1614 11.735 # H
645 10 7 0.08883 6.92742 22.4421 10.7719 # H
646 10 7 0.08883 3.39171 20.9747 11.8812 # H
647 11 2 0.64584 1.65011 14.3741 14.4401 # c
648 11 2 0.64584 1.65011 17.6896 9.86338 # c
649 11 3 0.010785 1.61656 15.2788 13.2864 # C
650 11 3 0.010785 1.58436 16.854 11.2032 # C
651 11 3 -0.17502 0.193818 16.5112 11.5392 # C
652 11 7 0.08883 -0.225378 16.0212 10.7884 # H
653 11 7 0.08883 -0.328365 17.3354 11.705 # H
654 11 3 -0.17502 0.199232 15.6315 12.8016 # C
655 11 7 0.08883 -0.293747 14.7932 12.6122 # H
656 11 7 0.08883 -0.280012 16.1051 13.527 # H