# LAMMPS data file written by WriteLammpsdata function in RASPA(written by Zhao Li)
300 atoms
0 bonds
0 angles
0 dihedrals
0 impropers
0 56.7382 xlo xhi
0 56.7382 ylo yhi
0 56.7382 zlo zhi
3.47421e-15 3.47421e-15 3.47421e-15 xy xz yz

14 atom types
0 bond types
0 angle types
0 dihedral types
0 improper types

Masses

1 12 # C
2 1 # H
3 65.39 # Zn
4 14 # N
5 15.999 # O
6 12 # C_co2
7 15.9994 # O_co2
8 14 # N_n2
9 0 # N_com
10 0 # Lw
11 1.00079 # Hw
12 15.9994 # Ow
13 15.0425 # CH3_sp3
14 16 # CH4_sp3

Pair Coeffs

1 0.104984 3.43 # C
2 0.0439967 2.57 # H
3 0.123982 2.46 # Zn
4 0.0689958 3.26 # N
5 0.0599937 3.12 # O
6 0.0536545 2.8 # C_co2
7 0.156989 3.05 # O_co2
8 0.0715394 3.31 # N_n2
9 0 0 # N_com
10 0 0 # Lw
11 0 0 # Hw
12 0.155002 3.154 # Ow
13 0.194746 3.75 # CH3_sp3
14 0.294106 3.73 # CH4_sp3

Atoms

1 2 7 -0.35 7.325027415 37.12480345 21.68152423 # CO2 O_co2
2 2 6 0.7 6.323408881 37.371941 22.21188575 # CO2 C_co2
3 2 7 -0.35 5.321790348 37.61907855 22.74224727 # CO2 O_co2
4 3 7 -0.35 39.99526595 33.40159536 34.37954871 # CO2 O_co2
5 3 6 0.7 39.85720348 34.54977363 34.28885467 # CO2 C_co2
6 3 7 -0.35 39.719141 35.6979519 34.19816062 # CO2 O_co2
7 4 7 -0.35 12.77043489 41.44977072 41.19609115 # CO2 O_co2
8 4 6 0.7 13.80725666 41.86361155 40.88091438 # CO2 C_co2
9 4 7 -0.35 14.84407842 42.27745238 40.56573761 # CO2 O_co2
10 5 7 -0.35 6.355400132 44.32207497 22.02709236 # CO2 O_co2
11 5 6 0.7 5.487981917 44.47452097 22.78203995 # CO2 C_co2
12 5 7 -0.35 4.620563702 44.62696696 23.53698753 # CO2 O_co2
13 6 7 -0.35 8.96525022 6.857488457 54.67289872 # CO2 O_co2
14 6 6 0.7 8.342457384 7.528322747 53.96036069 # CO2 C_co2
15 6 7 -0.35 7.719664548 8.199157037 53.24782267 # CO2 O_co2
16 7 7 -0.35 53.75285297 53.05750039 30.95693026 # CO2 O_co2
17 7 6 0.7 53.17277627 52.50357162 31.79494812 # CO2 C_co2
18 7 7 -0.35 52.59269956 51.94964285 32.63296598 # CO2 O_co2
19 8 7 -0.35 10.80202982 29.57833167 39.76004254 # CO2 O_co2
20 8 6 0.7 10.87417239 30.66804675 40.15108794 # CO2 C_co2
21 8 7 -0.35 10.94631496 31.75776182 40.54213333 # CO2 O_co2
22 9 7 -0.35 30.35513147 12.94589319 4.625062936 # CO2 O_co2
23 9 6 0.7 30.53386371 12.97418141 5.770861592 # CO2 C_co2
24 9 7 -0.35 30.71259596 13.00246963 6.916660249 # CO2 O_co2
25 10 7 -0.35 55.98728048 53.77234464 3.739900676 # CO2 O_co2
26 10 6 0.7 55.26931409 54.02120371 4.61636712 # CO2 C_co2
27 10 7 -0.35 54.55134771 54.27006279 5.492833564 # CO2 O_co2
28 11 7 -0.35 32.27647446 36.81829531 16.90815008 # CO2 O_co2
29 11 6 0.7 32.95062358 36.49311681 16.02193233 # CO2 C_co2
30 11 7 -0.35 33.62477269 36.16793832 15.13571457 # CO2 O_co2
31 12 7 -0.35 35.0449584 27.66537296 26.3725519 # CO2 O_co2
32 12 6 0.7 35.56928058 27.19212689 25.4523756 # CO2 C_co2
33 12 7 -0.35 36.09360276 26.71888083 24.53219931 # CO2 O_co2
34 13 7 -0.35 48.1064625 13.35735248 54.42787108 # CO2 O_co2
35 13 6 0.7 47.53123444 12.72699669 55.21359639 # CO2 C_co2
36 13 7 -0.35 46.95600637 12.0966409 55.99932169 # CO2 O_co2
37 14 7 -0.35 14.66178912 17.67572823 36.44638217 # CO2 O_co2
38 14 6 0.7 13.74504561 18.25972007 36.85151779 # CO2 C_co2
39 14 7 -0.35 12.8283021 18.84371191 37.25665341 # CO2 O_co2
40 15 7 -0.35 36.84407169 47.50446221 1.687327982 # CO2 O_co2
41 15 6 0.7 37.59000301 47.96837031 0.9297161121 # CO2 C_co2
42 15 7 -0.35 38.33593434 48.4322784 0.172104242 # CO2 O_co2
43 16 7 -0.35 10.54851708 18.22205437 34.81079364 # CO2 O_co2
44 16 6 0.7 10.06238676 18.69756678 35.75056237 # CO2 C_co2
45 16 7 -0.35 9.576256432 19.1730792 36.69033109 # CO2 O_co2
46 17 7 -0.35 2.919455648 50.55400008 9.548521217 # CO2 O_co2
47 17 6 0.7 3.804178698 50.08525765 10.13430757 # CO2 C_co2
48 17 7 -0.35 4.688901749 49.61651521 10.72009392 # CO2 O_co2
49 18 7 -0.35 29.52456469 20.25447794 45.47109447 # CO2 O_co2
50 18 6 0.7 29.27612781 19.23530771 44.97594686 # CO2 C_co2
51 18 7 -0.35 29.02769093 18.21613748 44.48079925 # CO2 O_co2
52 19 7 -0.35 19.53438999 46.69590077 28.67123526 # CO2 O_co2
53 19 6 0.7 20.07382594 47.69054601 28.41571676 # CO2 C_co2
54 19 7 -0.35 20.6132619 48.68519124 28.16019826 # CO2 O_co2
55 20 7 -0.35 41.06176387 42.45154253 39.31527253 # CO2 O_co2
56 20 6 0.7 40.34610487 41.58277819 39.0347717 # CO2 C_co2
57 20 7 -0.35 39.63044587 40.71401385 38.75427086 # CO2 O_co2
58 21 7 -0.35 15.28918672 48.29533629 15.44788733 # CO2 O_co2
59 21 6 0.7 15.64484051 47.28109473 15.01151084 # CO2 C_co2
60 21 7 -0.35 16.00049431 46.26685317 14.57513435 # CO2 O_co2
61 22 7 -0.35 49.52689402 15.970862 14.69871211 # CO2 O_co2
62 22 6 0.7 50.1313334 15.79606568 15.67323727 # CO2 C_co2
63 22 7 -0.35 50.73577278 15.62126935 16.64776243 # CO2 O_co2
64 23 7 -0.35 47.73978489 15.62101732 39.84283393 # CO2 O_co2
65 23 6 0.7 47.84494719 16.65349085 40.3610417 # CO2 C_co2
66 23 7 -0.35 47.95010948 17.68596439 40.87924947 # CO2 O_co2
67 24 7 -0.35 20.22932876 36.43442989 6.796213742 # CO2 O_co2
68 24 6 0.7 20.59146645 36.85990129 7.812791519 # CO2 C_co2
69 24 7 -0.35 20.95360415 37.28537269 8.829369297 # CO2 O_co2
70 25 7 -0.35 6.465048291 56.03599338 53.69887867 # CO2 O_co2
71 25 6 0.7 7.131035451 55.41375123 52.9813302 # CO2 C_co2
72 25 7 -0.35 7.797022611 54.79150908 52.26378173 # CO2 O_co2
73 26 7 -0.35 2.827289479 0.2654878586 24.8246557 # CO2 O_co2
74 26 6 0.7 3.841566519 0.8006864046 24.65028654 # CO2 C_co2
75 26 7 -0.35 4.855843558 1.335884951 24.47591738 # CO2 O_co2
76 27 7 -0.35 16.62072277 28.61006056 47.79839272 # CO2 O_co2
77 27 6 0.7 17.54939157 29.22907494 47.48217215 # CO2 C_co2
78 27 7 -0.35 18.47806037 29.84808932 47.16595158 # CO2 O_co2
79 28 7 -0.35 37.71291293 18.36989284 37.02387015 # CO2 O_co2
80 28 6 0.7 38.2206638 18.65538184 36.02073253 # CO2 C_co2
81 28 7 -0.35 38.72841468 18.94087083 35.01759491 # CO2 O_co2
82 29 7 -0.35 60.30044767 32.73813168 33.75367756 # CO2 O_co2
83 29 6 0.7 59.58673906 32.77414256 34.66741889 # CO2 C_co2
84 29 7 -0.35 58.87303044 32.81015343 35.58116023 # CO2 O_co2
85 30 7 -0.35 5.05522074 45.58097099 15.3539036 # CO2 O_co2
86 30 6 0.7 4.163559236 46.32165451 15.30999822 # CO2 C_co2
87 30 7 -0.35 3.271897732 47.06233804 15.26609285 # CO2 O_co2
88 31 7 -0.35 56.04210284 51.08148911 53.06733447 # CO2 O_co2
89 31 6 0.7 57.05806823 51.16038 53.62158221 # CO2 C_co2
90 31 7 -0.35 58.07403362 51.23927089 54.17582994 # CO2 O_co2
91 32 7 -0.35 28.99238567 37.25481564 14.93521959 # CO2 O_co2
92 32 6 0.7 29.7373515 36.43902784 14.58150194 # CO2 C_co2
93 32 7 -0.35 30.48231732 35.62324004 14.22778428 # CO2 O_co2
94 33 7 -0.35 15.73241939 9.187082099 3.515949673 # CO2 O_co2
95 33 6 0.7 16.41168133 10.03708782 3.918060971 # CO2 C_co2
96 33 7 -0.35 17.09094327 10.88709353 4.320172268 # CO2 O_co2
97 34 7 -0.35 25.15107652 29.14429342 27.03893523 # CO2 O_co2
98 34 6 0.7 24.88194696 29.93380007 27.84506706 # CO2 C_co2
99 34 7 -0.35 24.6128174 30.72330673 28.65119888 # CO2 O_co2
100 35 7 -0.35 31.31553211 26.96701132 33.6083885 # CO2 O_co2
101 35 6 0.7 32.31322239 27.55045048 33.70744833 # CO2 C_co2
102 35 7 -0.35 33.31091267 28.13388964 33.80650816 # CO2 O_co2
103 36 7 -0.35 17.98935842 25.01382007 43.07146966 # CO2 O_co2
104 36 6 0.7 17.4494632 25.22861732 42.06748993 # CO2 C_co2
105 36 7 -0.35 16.90956798 25.44341457 41.06351021 # CO2 O_co2
106 37 7 -0.35 33.26134013 54.52922623 8.99973897 # CO2 O_co2
107 37 6 0.7 32.86865462 54.19801522 10.03978578 # CO2 C_co2
108 37 7 -0.35 32.47596912 53.86680421 11.07983258 # CO2 O_co2
109 38 7 -0.35 11.05787229 34.54216486 35.78820243 # CO2 O_co2
110 38 6 0.7 11.48404715 33.61119838 36.33343302 # CO2 C_co2
111 38 7 -0.35 11.91022201 32.68023189 36.8786636 # CO2 O_co2
112 39 7 -0.35 25.94891577 35.05318243 31.00307394 # CO2 O_co2
113 39 6 0.7 25.12302656 35.78099597 31.36885317 # CO2 C_co2
114 39 7 -0.35 24.29713734 36.50880952 31.7346324 # CO2 O_co2
115 40 7 -0.35 53.22320019 3.700474312 16.507107 # CO2 O_co2
116 40 6 0.7 52.39390209 4.290559321 15.95063208 # CO2 C_co2
117 40 7 -0.35 51.56460399 4.880644329 15.39415715 # CO2 O_co2
118 41 7 -0.35 8.03774463 31.17515629 42.19076821 # CO2 O_co2
119 41 6 0.7 8.749760771 31.85026101 42.8095304 # CO2 C_co2
120 41 7 -0.35 9.461776912 32.52536572 43.42829258 # CO2 O_co2
121 42 7 -0.35 38.52204675 36.78232386 52.56960218 # CO2 O_co2
122 42 6 0.7 37.67123472 36.19268626 52.04610778 # CO2 C_co2
123 42 7 -0.35 36.82042269 35.60304865 51.52261338 # CO2 O_co2
124 43 7 -0.35 -0.9165832893 34.56943121 44.83274166 # CO2 O_co2
125 43 6 0.7 -0.1051137573 35.21757527 45.34948771 # CO2 C_co2
126 43 7 -0.35 0.7063557747 35.86571933 45.86623376 # CO2 O_co2
127 44 7 -0.35 12.0356249 16.50705522 39.12641376 # CO2 O_co2
128 44 6 0.7 10.92310599 16.57995872 39.44670544 # CO2 C_co2
129 44 7 -0.35 9.810587084 16.65286221 39.76699711 # CO2 O_co2
130 45 7 -0.35 44.9339697 29.21884623 14.15971275 # CO2 O_co2
131 45 6 0.7 44.81597136 28.20033994 14.70222665 # CO2 C_co2
132 45 7 -0.35 44.69797301 27.18183366 15.24474056 # CO2 O_co2
133 46 7 -0.35 19.60666001 36.7062735 44.14982813 # CO2 O_co2
134 46 6 0.7 19.15109988 37.60716668 44.72119182 # CO2 C_co2
135 46 7 -0.35 18.69553975 38.50805985 45.2925555 # CO2 O_co2
136 47 7 -0.35 33.71557027 26.30402428 37.74756488 # CO2 O_co2
137 47 6 0.7 32.82904454 27.00616772 37.48936589 # CO2 C_co2
138 47 7 -0.35 31.9425188 27.70831116 37.2311669 # CO2 O_co2
139 48 7 -0.35 -2.036957229 13.20263267 49.52016947 # CO2 O_co2
140 48 6 0.7 -1.96207691 14.34095494 49.30989505 # CO2 C_co2
141 48 7 -0.35 -1.88719659 15.47927722 49.09962062 # CO2 O_co2
142 49 7 -0.35 25.64777709 -2.32595509 6.681226426 # CO2 O_co2
143 49 6 0.7 26.11074383 -2.399528028 5.620166195 # CO2 C_co2
144 49 7 -0.35 26.57371058 -2.473100967 4.559105964 # CO2 O_co2
145 50 7 -0.35 13.42428853 31.84809947 43.86395709 # CO2 O_co2
146 50 6 0.7 13.08335773 32.37011322 44.8421533 # CO2 C_co2
147 50 7 -0.35 12.74242693 32.89212696 45.82034952 # CO2 O_co2
148 51 7 -0.35 4.855039311 0.08276517863 7.320369135 # CO2 O_co2
149 51 6 0.7 5.195820825 -0.3379203181 6.294458967 # CO2 C_co2
150 51 7 -0.35 5.536602339 -0.7586058148 5.268548799 # CO2 O_co2
151 52 7 -0.35 36.28648509 22.23026693 60.59398454 # CO2 O_co2
152 52 6 0.7 36.77458428 23.130745 60.04946784 # CO2 C_co2
153 52 7 -0.35 37.26268347 24.03122307 59.50495114 # CO2 O_co2
154 53 7 -0.35 19.47446342 30.83498194 37.55902348 # CO2 O_co2
155 53 6 0.7 18.95652573 30.18328363 38.36687857 # CO2 C_co2
156 53 7 -0.35 18.43858804 29.53158532 39.17473367 # CO2 O_co2
157 54 7 -0.35 54.77972148 50.1067864 26.90975933 # CO2 O_co2
158 54 6 0.7 54.00414962 50.39152959 27.72401334 # CO2 C_co2
159 54 7 -0.35 53.22857776 50.67627277 28.53826736 # CO2 O_co2
160 55 7 -0.35 47.7293038 6.859087338 15.57638254 # CO2 O_co2
161 55 6 0.7 47.44576122 5.763464867 15.32179463 # CO2 C_co2
162 55 7 -0.35 47.16221864 4.667842396 15.06720672 # CO2 O_co2
163 56 7 -0.35 20.46046937 7.912511881 4.81517384 # CO2 O_co2
164 56 6 0.7 20.95046647 8.706295217 4.125673404 # CO2 C_co2
165 56 7 -0.35 21.44046358 9.500078554 3.436172969 # CO2 O_co2
166 57 7 -0.35 51.57419556 30.29045263 41.46940543 # CO2 O_co2
167 57 6 0.7 52.24900098 31.12685142 41.03274227 # CO2 C_co2
168 57 7 -0.35 52.92380639 31.9632502 40.5960791 # CO2 O_co2
169 58 7 -0.35 11.84052465 40.47526729 43.60915329 # CO2 O_co2
170 58 6 0.7 10.72309935 40.45003263 43.91951421 # CO2 C_co2
171 58 7 -0.35 9.605674042 40.42479797 44.22987513 # CO2 O_co2
172 59 7 -0.35 40.19828732 55.61893997 11.16081755 # CO2 O_co2
173 59 6 0.7 40.11650627 54.58272962 11.67577384 # CO2 C_co2
174 59 7 -0.35 40.03472521 53.54651928 12.19073012 # CO2 O_co2
175 60 7 -0.35 36.29471168 21.88926727 15.88166427 # CO2 O_co2
176 60 6 0.7 36.16080335 21.92165508 14.72987454 # CO2 C_co2
177 60 7 -0.35 36.02689502 21.95404289 13.57808481 # CO2 O_co2
178 61 7 -0.35 39.63007962 21.92627021 20.21821822 # CO2 O_co2
179 61 6 0.7 39.40737717 21.63410278 21.31850991 # CO2 C_co2
180 61 7 -0.35 39.18467472 21.34193535 22.4188016 # CO2 O_co2
181 62 7 -0.35 16.88370314 48.32206741 31.82190583 # CO2 O_co2
182 62 6 0.7 17.71936073 48.01424236 32.5652228 # CO2 C_co2
183 62 7 -0.35 18.55501833 47.70641731 33.30853978 # CO2 O_co2
184 63 7 -0.35 31.47635461 1.095131264 38.37607986 # CO2 O_co2
185 63 6 0.7 30.71146343 1.655901437 39.04397079 # CO2 C_co2
186 63 7 -0.35 29.94657225 2.216671611 39.71186172 # CO2 O_co2
187 64 7 -0.35 29.4836338 43.93187378 6.66031975 # CO2 O_co2
188 64 6 0.7 29.02643642 42.87888782 6.493613 # CO2 C_co2
189 64 7 -0.35 28.56923905 41.82590187 6.32690625 # CO2 O_co2
190 65 7 -0.35 -0.7766772352 28.85132875 50.32519104 # CO2 O_co2
191 65 6 0.7 0.2798643302 28.44730148 50.06812707 # CO2 C_co2
192 65 7 -0.35 1.336405896 28.0432742 49.8110631 # CO2 O_co2
193 66 7 -0.35 40.52468851 52.97393324 3.41757254 # CO2 O_co2
194 66 6 0.7 40.86536777 53.88191677 2.781095079 # CO2 C_co2
195 66 7 -0.35 41.20604703 54.7899003 2.144617618 # CO2 O_co2
196 67 7 -0.35 28.34530775 10.14842194 29.54241032 # CO2 O_co2
197 67 6 0.7 28.51579516 9.610454451 28.52893855 # CO2 C_co2
198 67 7 -0.35 28.68628257 9.072486959 27.51546679 # CO2 O_co2
199 68 7 -0.35 26.24705067 9.444746422 16.20604104 # CO2 O_co2
200 68 6 0.7 26.93221904 8.572369675 16.54530955 # CO2 C_co2
201 68 7 -0.35 27.61738741 7.699992928 16.88457805 # CO2 O_co2
202 69 7 -0.35 36.86997796 7.830565861 15.39493602 # CO2 O_co2
203 69 6 0.7 37.49473604 7.867961723 14.41826878 # CO2 C_co2
204 69 7 -0.35 38.11949411 7.905357585 13.44160154 # CO2 O_co2
205 70 7 -0.35 46.27512977 4.133852653 51.1489136 # CO2 O_co2
206 70 6 0.7 47.29537929 3.67232372 50.84612332 # CO2 C_co2
207 70 7 -0.35 48.31562882 3.210794786 50.54333304 # CO2 O_co2
208 71 7 -0.35 10.85846836 35.42868686 46.92374884 # CO2 O_co2
209 71 6 0.7 11.49498646 35.8386775 46.04491303 # CO2 C_co2
210 71 7 -0.35 12.13150455 36.24866814 45.16607721 # CO2 O_co2
211 72 7 -0.35 21.82361825 47.42974558 33.7057478 # CO2 O_co2
212 72 6 0.7 21.75296162 47.21273812 32.56841962 # CO2 C_co2
213 72 7 -0.35 21.68230498 46.99573066 31.43109143 # CO2 O_co2
214 73 7 -0.35 51.53514186 29.40662416 14.86591539 # CO2 O_co2
215 73 6 0.7 51.85941173 30.43129644 15.30237359 # CO2 C_co2
216 73 7 -0.35 52.1836816 31.45596873 15.73883178 # CO2 O_co2
217 74 7 -0.35 38.83969521 48.62653126 4.567929624 # CO2 O_co2
218 74 6 0.7 38.99325057 49.18726426 5.57172206 # CO2 C_co2
219 74 7 -0.35 39.14680593 49.74799726 6.575514496 # CO2 O_co2
220 75 7 -0.35 20.94807104 25.55715358 29.92200793 # CO2 O_co2
221 75 6 0.7 20.59673176 24.97243988 28.98378056 # CO2 C_co2
222 75 7 -0.35 20.24539248 24.38772618 28.04555319 # CO2 O_co2
223 76 7 -0.35 11.6290128 50.48226348 5.521109634 # CO2 O_co2
224 76 6 0.7 11.53528375 49.68831878 6.361625352 # CO2 C_co2
225 76 7 -0.35 11.44155471 48.89437408 7.202141071 # CO2 O_co2
226 77 7 -0.35 43.16448553 48.28176686 15.19387129 # CO2 O_co2
227 77 6 0.7 43.58550812 49.24865285 14.71068245 # CO2 C_co2
228 77 7 -0.35 44.0065307 50.21553884 14.2274936 # CO2 O_co2
229 78 7 -0.35 9.404542751 56.10466122 4.185412944 # CO2 O_co2
230 78 6 0.7 9.865255104 56.65301147 3.272913013 # CO2 C_co2
231 78 7 -0.35 10.32596746 57.20136173 2.360413082 # CO2 O_co2
232 79 7 -0.35 5.200715183 32.14307552 13.88984303 # CO2 O_co2
233 79 6 0.7 6.315544325 32.40513671 14.07445049 # CO2 C_co2
234 79 7 -0.35 7.430373467 32.6671979 14.25905796 # CO2 O_co2
235 80 7 -0.35 6.333937266 2.624295311 6.609121183 # CO2 O_co2
236 80 6 0.7 6.112076018 2.651059274 7.747392362 # CO2 C_co2
237 80 7 -0.35 5.890214771 2.677823236 8.885663541 # CO2 O_co2
238 81 7 -0.35 46.23258338 52.55266548 41.76897492 # CO2 O_co2
239 81 6 0.7 45.18512048 52.05637741 41.81501434 # CO2 C_co2
240 81 7 -0.35 44.13765758 51.56008934 41.86105376 # CO2 O_co2
241 82 7 -0.35 35.55745629 31.07982302 34.60092934 # CO2 O_co2
242 82 6 0.7 35.54263651 30.99160362 35.75747493 # CO2 C_co2
243 82 7 -0.35 35.52781673 30.90338422 36.91402053 # CO2 O_co2
244 83 7 -0.35 31.77786625 12.09564023 26.67548955 # CO2 O_co2
245 83 6 0.7 32.861227 12.36255767 26.35818125 # CO2 C_co2
246 83 7 -0.35 33.94458776 12.62947511 26.04087295 # CO2 O_co2
247 84 7 -0.35 24.70156605 1.996538171 43.92531339 # CO2 O_co2
248 84 6 0.7 25.45821893 1.869725346 44.79536794 # CO2 C_co2
249 84 7 -0.35 26.21487181 1.742912521 45.66542249 # CO2 O_co2
250 85 7 -0.35 27.71550828 28.33485286 30.46834673 # CO2 O_co2
251 85 6 0.7 27.42059216 27.71220048 29.53511123 # CO2 C_co2
252 85 7 -0.35 27.12567604 27.0895481 28.60187574 # CO2 O_co2
253 86 7 -0.35 4.246802566 17.28040531 0.120269633 # CO2 O_co2
254 86 6 0.7 4.431681755 17.73541571 -0.9306277061 # CO2 C_co2
255 86 7 -0.35 4.616560944 18.19042612 -1.981525045 # CO2 O_co2
256 87 7 -0.35 31.38387946 4.198575994 29.297559 # CO2 O_co2
257 87 6 0.7 30.39767371 4.699308403 28.94789449 # CO2 C_co2
258 87 7 -0.35 29.41146796 5.200040813 28.59822998 # CO2 O_co2
259 88 7 -0.35 54.32864499 10.76272678 40.33543236 # CO2 O_co2
260 88 6 0.7 53.50080483 10.49331728 39.56881695 # CO2 C_co2
261 88 7 -0.35 52.67296466 10.22390779 38.80220155 # CO2 O_co2
262 89 7 -0.35 55.38675659 0.5497752682 25.94767579 # CO2 O_co2
263 89 6 0.7 56.36674729 -0.03224096471 26.16325716 # CO2 C_co2
264 89 7 -0.35 57.346738 -0.6142571976 26.37883853 # CO2 O_co2
265 90 7 -0.35 10.07185556 16.65155858 51.32584578 # CO2 O_co2
266 90 6 0.7 10.62420515 17.65708421 51.49739209 # CO2 C_co2
267 90 7 -0.35 11.17655474 18.66260984 51.66893841 # CO2 O_co2
268 91 7 -0.35 56.58666339 38.29992905 34.8069247 # CO2 O_co2
269 91 6 0.7 56.68817643 39.04056958 35.69391214 # CO2 C_co2
270 91 7 -0.35 56.78968947 39.7812101 36.58089957 # CO2 O_co2
271 92 7 -0.35 34.12263606 37.47662101 50.90778375 # CO2 O_co2
272 92 6 0.7 33.97922232 38.34358021 51.66502496 # CO2 C_co2
273 92 7 -0.35 33.83580859 39.21053941 52.42226616 # CO2 O_co2
274 93 7 -0.35 35.77550811 19.69685485 39.66137899 # CO2 O_co2
275 93 6 0.7 36.14470374 20.79652998 39.65834437 # CO2 C_co2
276 93 7 -0.35 36.51389936 21.8962051 39.65530975 # CO2 O_co2
277 94 7 -0.35 43.42112681 38.6764404 14.99582827 # CO2 O_co2
278 94 6 0.7 42.36283267 38.45942216 14.57331601 # CO2 C_co2
279 94 7 -0.35 41.30453854 38.24240393 14.15080375 # CO2 O_co2
280 95 7 -0.35 33.59894901 6.903706175 25.36335962 # CO2 O_co2
281 95 6 0.7 33.20214511 7.883152958 25.84172211 # CO2 C_co2
282 95 7 -0.35 32.80534122 8.862599741 26.3200846 # CO2 O_co2
283 96 7 -0.35 34.20752599 16.48970001 32.85669109 # CO2 O_co2
284 96 6 0.7 35.30787737 16.42017889 33.21723743 # CO2 C_co2
285 96 7 -0.35 36.40822874 16.35065777 33.57778377 # CO2 O_co2
286 97 7 -0.35 49.71308898 9.781870142 51.78531961 # CO2 O_co2
287 97 6 0.7 50.06462957 9.745788372 50.68045884 # CO2 C_co2
288 97 7 -0.35 50.41617015 9.709706603 49.57559807 # CO2 O_co2
289 98 7 -0.35 41.29384764 26.07184825 40.76575202 # CO2 O_co2
290 98 6 0.7 40.88466335 27.0486088 41.23915149 # CO2 C_co2
291 98 7 -0.35 40.47547907 28.02536934 41.71255096 # CO2 O_co2
292 99 7 -0.35 34.91712928 32.90618323 32.12542391 # CO2 O_co2
293 99 6 0.7 36.04919024 33.00582298 32.35803926 # CO2 C_co2
294 99 7 -0.35 37.1812512 33.10546273 32.59065462 # CO2 O_co2
295 100 7 -0.35 36.83410609 20.92109228 19.5915768 # CO2 O_co2
296 100 6 0.7 36.60302619 20.20319914 18.71019634 # CO2 C_co2
297 100 7 -0.35 36.37194628 19.485306 17.82881588 # CO2 O_co2
298 101 7 -0.35 34.69669208 39.33066971 33.73892967 # CO2 O_co2
299 101 6 0.7 34.34769418 38.72923242 34.66740888 # CO2 C_co2
300 101 7 -0.35 33.99869629 38.12779512 35.59588809 # CO2 O_co2
